                         Program Version 5.0.3 -  RELEASE  -
|  1> ! PBE0 def2-SVP D3BJ def2/J RIJCOSX tightSCF noautostart miniprint nopop defgrid3
|  2> ! EnGrad
|  3> %maxcore    4000
|  4> %pal    nprocs  8  end
|  5> %tddft  PrintLevel  3
|  6> 	IRootMult	Triplet
|  7> 	TDA	True
|  8> 	NRoots	5
|  9>         MaxDim  10
| 10> end
| 11> * xyzfile 0 1 orcaopt.xyz
| 12>
| 13>
| 14>                          ****END OF INPUT****

CARTESIAN COORDINATES (ANGSTROEM)
---------------------------------
  C      0.000208    0.064880   -1.555692
  C     -0.000136   -0.091146   -0.031067
  C     -0.000368    1.280681    0.652291
  C     -1.177869   -0.936085    0.434039
  C     -2.522305   -0.679614    0.298398
  C     -3.480294   -1.598243    0.807375
  C     -4.910878   -1.388409    0.704492
  C     -5.546319   -0.332271    0.124768
  C     -6.973917   -0.130866    0.037391
  C     -7.928661   -1.033004    0.580374
  C     -9.285085   -0.797019    0.478102
  C     -9.763417    0.352065   -0.178041
  N    -11.145914    0.590809   -0.283082
  C    -11.796948    1.755503    0.100432
  C    -11.271038    2.904091    0.698654
  C    -12.156417    3.933500    1.004269
  C    -13.528782    3.822283    0.734773
  C    -14.050613    2.664711    0.158718
  C    -13.183854    1.620169   -0.160493
  C    -13.370032    0.299396   -0.726054
  C    -14.480365   -0.403024   -1.193048
  C    -14.298286   -1.682845   -1.715416
  C    -13.018531   -2.253623   -1.785224
  C    -11.894110   -1.572325   -1.328666
  C    -12.085995   -0.298655   -0.785984
  C     -8.837679    1.260537   -0.727878
  C     -7.481453    1.019292   -0.615521
  C     -3.004132   -2.769561    1.447192
  C     -1.654509   -3.038351    1.589019
  C     -0.717507   -2.116534    1.080672
  C      0.716951   -2.116467    1.080978
  C      1.653817   -3.038113    1.589885
  C      3.003476   -2.769170    1.448695
  C      3.479803   -1.597886    0.808940
  C      4.910413   -1.388069    0.706367
  C      5.546039   -0.333761    0.123525
  C      6.973665   -0.132321    0.036626
  C      7.481569    1.013892   -0.622903
  C      8.837855    1.254661   -0.735588
  C      9.763273    0.349762   -0.179359
  N     11.145822    0.587952   -0.284858
  C     11.796566    1.754980    0.092023
  C     11.270183    2.907332    0.682529
  C     12.155350    3.938570    0.982543
  C     13.527967    3.825573    0.715073
  C     14.050250    2.664380    0.146775
  C     13.183710    1.617929   -0.166722
  C     13.370347    0.293643   -0.723858
  C     14.481074   -0.411724   -1.185439
  C     14.299402   -1.694751   -1.700028
  C     13.019673   -2.265878   -1.767484
  C     11.894870   -1.581692   -1.316224
  C     12.086330   -0.304687   -0.781277
  C      9.284557   -0.795170    0.483735
  C      7.928083   -1.030692    0.586387
  C      2.521950   -0.679292    0.299646
  C      1.177479   -0.935969    0.434555
  H      0.891379    0.618792   -1.889829
  H     -0.890796    0.618813   -1.890240
  H      0.000312   -0.917408   -2.049974
  H     -0.891358    1.859405    0.362703
  H      0.890718    1.859489    0.363171
  H     -0.000648    1.173071    1.746658
  H     -2.857499    0.233161   -0.199812
  H     -5.520692   -2.180224    1.151181
  H     -4.941549    0.459459   -0.328289
  H     -7.590430   -1.926357    1.107796
  H     -9.998096   -1.489926    0.929962
  H    -10.207410    2.986364    0.926586
  H    -11.772701    4.843857    1.470478
  H    -14.195413    4.649261    0.988572
  H    -15.122125    2.574133   -0.034031
  H    -15.475789    0.045539   -1.155370
  H    -15.158949   -2.245681   -2.083077
  H    -12.898210   -3.251828   -2.212360
  H    -10.898486   -2.012373   -1.400359
  H     -9.200621    2.140015   -1.263419
  H     -6.774509    1.727924   -1.054894
  H     -3.738502   -3.478358    1.839651
  H     -1.321912   -3.950956    2.088713
  H      1.321086   -3.950692    2.089539
  H      3.737745   -3.477862    1.841532
  H      5.520104   -2.178465    1.155735
  H      4.941443    0.455986   -0.333212
  H      6.774893    1.719626   -1.067343
  H      9.201103    2.130838   -1.276311
  H     10.206346    2.991139    0.908924
  H     11.771249    4.851854    1.442670
  H     14.194416    4.654077    0.964333
  H     15.121937    2.572503   -0.044383
  H     15.476486    0.037017   -1.149609
  H     15.160371   -2.259911   -2.063382
  H     12.899684   -3.266710   -2.188524
  H     10.899290   -2.022135   -1.386097
  H      9.997283   -1.484986    0.940747
  H      7.589529   -1.920438    1.119669
  H      2.857285    0.233762   -0.197960

ORBITAL ENERGIES
----------------

  NO   OCC          E(Eh)            E(eV)
   0   2.0000     -14.448961      -393.1762
   1   2.0000     -14.448960      -393.1762
   2   2.0000     -10.293227      -280.0930
   3   2.0000     -10.293226      -280.0929
   4   2.0000     -10.276303      -279.6324
   5   2.0000     -10.276301      -279.6324
   6   2.0000     -10.276238      -279.6306
   7   2.0000     -10.276237      -279.6306
   8   2.0000     -10.264349      -279.3071
   9   2.0000     -10.260676      -279.2072
  10   2.0000     -10.260675      -279.2072
  11   2.0000     -10.257506      -279.1209
  12   2.0000     -10.257500      -279.1208
  13   2.0000     -10.253770      -279.0193
  14   2.0000     -10.253768      -279.0192
  15   2.0000     -10.253469      -279.0111
  16   2.0000     -10.253469      -279.0111
  17   2.0000     -10.253263      -279.0055
  18   2.0000     -10.253262      -279.0054
  19   2.0000     -10.252963      -278.9973
  20   2.0000     -10.252963      -278.9973
  21   2.0000     -10.251710      -278.9632
  22   2.0000     -10.251709      -278.9632
  23   2.0000     -10.250718      -278.9362
  24   2.0000     -10.250636      -278.9340
  25   2.0000     -10.250635      -278.9340
  26   2.0000     -10.250510      -278.9306
  27   2.0000     -10.248983      -278.8890
  28   2.0000     -10.248890      -278.8865
  29   2.0000     -10.248712      -278.8816
  30   2.0000     -10.248679      -278.8807
  31   2.0000     -10.247508      -278.8489
  32   2.0000     -10.247504      -278.8488
  33   2.0000     -10.247466      -278.8477
  34   2.0000     -10.247449      -278.8473
  35   2.0000     -10.240442      -278.6566
  36   2.0000     -10.240442      -278.6566
  37   2.0000     -10.240310      -278.6530
  38   2.0000     -10.240309      -278.6530
  39   2.0000     -10.239821      -278.6397
  40   2.0000     -10.239820      -278.6397
  41   2.0000     -10.239750      -278.6378
  42   2.0000     -10.239749      -278.6377
  43   2.0000     -10.239292      -278.6253
  44   2.0000     -10.239291      -278.6253
  45   2.0000     -10.239084      -278.6196
  46   2.0000     -10.239083      -278.6196
  47   2.0000     -10.238701      -278.6092
  48   2.0000     -10.238701      -278.6092
  49   2.0000     -10.238679      -278.6086
  50   2.0000     -10.238678      -278.6086
  51   2.0000     -10.238027      -278.5909
  52   2.0000     -10.238015      -278.5905
  53   2.0000     -10.232821      -278.4492
  54   2.0000     -10.232821      -278.4492
  55   2.0000     -10.232793      -278.4484
  56   2.0000     -10.232792      -278.4484
  57   2.0000      -1.024147       -27.8685
  58   2.0000      -1.024146       -27.8684
  59   2.0000      -0.922895       -25.1132
  60   2.0000      -0.899969       -24.4894
  61   2.0000      -0.899790       -24.4845
  62   2.0000      -0.881407       -23.9843
  63   2.0000      -0.870830       -23.6965
  64   2.0000      -0.868997       -23.6466
  65   2.0000      -0.868866       -23.6430
  66   2.0000      -0.868864       -23.6430
  67   2.0000      -0.853537       -23.2259
  68   2.0000      -0.828247       -22.5377
  69   2.0000      -0.826759       -22.4973
  70   2.0000      -0.812536       -22.1102
  71   2.0000      -0.802729       -21.8434
  72   2.0000      -0.791408       -21.5353
  73   2.0000      -0.782147       -21.2833
  74   2.0000      -0.782000       -21.2793
  75   2.0000      -0.776258       -21.1231
  76   2.0000      -0.769857       -20.9489
  77   2.0000      -0.768714       -20.9178
  78   2.0000      -0.768546       -20.9132
  79   2.0000      -0.763490       -20.7756
  80   2.0000      -0.755962       -20.5708
  81   2.0000      -0.746777       -20.3208
  82   2.0000      -0.735991       -20.0273
  83   2.0000      -0.735986       -20.0272
  84   2.0000      -0.730537       -19.8789
  85   2.0000      -0.712801       -19.3963
  86   2.0000      -0.709216       -19.2987
  87   2.0000      -0.688198       -18.7268
  88   2.0000      -0.670761       -18.2523
  89   2.0000      -0.668976       -18.2038
  90   2.0000      -0.652562       -17.7571
  91   2.0000      -0.648440       -17.6449
  92   2.0000      -0.646334       -17.5876
  93   2.0000      -0.639519       -17.4022
  94   2.0000      -0.631831       -17.1930
  95   2.0000      -0.622919       -16.9505
  96   2.0000      -0.622122       -16.9288
  97   2.0000      -0.615383       -16.7454
  98   2.0000      -0.608933       -16.5699
  99   2.0000      -0.601074       -16.3560
 100   2.0000      -0.597195       -16.2505
 101   2.0000      -0.591470       -16.0947
 102   2.0000      -0.591367       -16.0919
 103   2.0000      -0.586600       -15.9622
 104   2.0000      -0.578556       -15.7433
 105   2.0000      -0.566597       -15.4179
 106   2.0000      -0.558833       -15.2066
 107   2.0000      -0.558392       -15.1946
 108   2.0000      -0.536608       -14.6019
 109   2.0000      -0.535462       -14.5707
 110   2.0000      -0.534641       -14.5483
 111   2.0000      -0.529737       -14.4149
 112   2.0000      -0.525617       -14.3028
 113   2.0000      -0.520867       -14.1735
 114   2.0000      -0.516302       -14.0493
 115   2.0000      -0.506465       -13.7816
 116   2.0000      -0.505343       -13.7511
 117   2.0000      -0.489816       -13.3286
 118   2.0000      -0.486142       -13.2286
 119   2.0000      -0.480841       -13.0844
 120   2.0000      -0.480520       -13.0756
 121   2.0000      -0.470701       -12.8084
 122   2.0000      -0.470313       -12.7979
 123   2.0000      -0.468111       -12.7379
 124   2.0000      -0.468046       -12.7362
 125   2.0000      -0.467270       -12.7151
 126   2.0000      -0.464517       -12.6402
 127   2.0000      -0.458404       -12.4738
 128   2.0000      -0.457700       -12.4547
 129   2.0000      -0.455771       -12.4022
 130   2.0000      -0.454620       -12.3708
 131   2.0000      -0.451448       -12.2845
 132   2.0000      -0.451075       -12.2744
 133   2.0000      -0.450940       -12.2707
 134   2.0000      -0.449961       -12.2441
 135   2.0000      -0.449624       -12.2349
 136   2.0000      -0.445741       -12.1292
 137   2.0000      -0.442048       -12.0287
 138   2.0000      -0.441798       -12.0219
 139   2.0000      -0.441706       -12.0194
 140   2.0000      -0.438581       -11.9344
 141   2.0000      -0.435291       -11.8449
 142   2.0000      -0.431798       -11.7498
 143   2.0000      -0.431126       -11.7315
 144   2.0000      -0.415971       -11.3191
 145   2.0000      -0.413234       -11.2447
 146   2.0000      -0.411599       -11.2002
 147   2.0000      -0.407779       -11.0962
 148   2.0000      -0.406008       -11.0481
 149   2.0000      -0.403472       -10.9790
 150   2.0000      -0.399943       -10.8830
 151   2.0000      -0.396182       -10.7807
 152   2.0000      -0.389590       -10.6013
 153   2.0000      -0.388637       -10.5754
 154   2.0000      -0.387637       -10.5482
 155   2.0000      -0.379598       -10.3294
 156   2.0000      -0.379385       -10.3236
 157   2.0000      -0.378790       -10.3074
 158   2.0000      -0.378658       -10.3038
 159   2.0000      -0.374180       -10.1820
 160   2.0000      -0.373790       -10.1713
 161   2.0000      -0.371811       -10.1175
 162   2.0000      -0.368528       -10.0282
 163   2.0000      -0.367770       -10.0075
 164   2.0000      -0.366350        -9.9689
 165   2.0000      -0.365524        -9.9464
 166   2.0000      -0.356741        -9.7074
 167   2.0000      -0.356099        -9.6900
 168   2.0000      -0.351463        -9.5638
 169   2.0000      -0.350799        -9.5457
 170   2.0000      -0.350795        -9.5456
 171   2.0000      -0.348144        -9.4735
 172   2.0000      -0.340718        -9.2714
 173   2.0000      -0.337757        -9.1908
 174   2.0000      -0.335368        -9.1258
 175   2.0000      -0.324886        -8.8406
 176   2.0000      -0.304177        -8.2771
 177   2.0000      -0.298719        -8.1286
 178   2.0000      -0.297281        -8.0894
 179   2.0000      -0.284585        -7.7440
 180   2.0000      -0.284510        -7.7419
 181   2.0000      -0.276822        -7.5327
 182   2.0000      -0.271991        -7.4012
 183   2.0000      -0.271066        -7.3761
 184   2.0000      -0.269674        -7.3382
 185   2.0000      -0.269666        -7.3380
 186   2.0000      -0.241670        -6.5762
 187   2.0000      -0.231106        -6.2887
 188   2.0000      -0.231106        -6.2887
 189   2.0000      -0.222063        -6.0426
 190   2.0000      -0.211759        -5.7623
 191   2.0000      -0.199912        -5.4399
 192   0.0000      -0.085626        -2.3300
 193   0.0000      -0.058738        -1.5984
 194   0.0000      -0.032539        -0.8854
 195   0.0000      -0.032536        -0.8854
 196   0.0000      -0.022090        -0.6011

Total SCF time: 0 days 0 hours 50 min 43 sec

-----------------------------------------------------------------------------
         ABSORPTION SPECTRUM VIA TRANSITION ELECTRIC DIPOLE MOMENTS
-----------------------------------------------------------------------------
State   Energy    Wavelength  fosc         T2        TX        TY        TZ
        (cm-1)      (nm)                 (au**2)    (au)      (au)      (au)
-----------------------------------------------------------------------------
   1   22039.2    453.7   3.056553302  45.65743  -6.75703   0.00120   0.00041
   2   24772.5    403.7   0.029035971   0.38587   0.00037   0.55819  -0.27256
   3   27273.2    366.7   0.479839319   5.79209   2.40668  -0.00079   0.00006
   4   27920.0    358.2   0.046986930   0.55403  -0.00028   0.66794  -0.32846
   5   28889.4    346.1   0.000038061   0.00043  -0.00293  -0.01768  -0.01060
   6   15050.2    664.4   spin forbidden (mult=3)
   7   18222.9    548.8   spin forbidden (mult=3)
   8   23690.4    422.1   spin forbidden (mult=3)
   9   24730.7    404.4   spin forbidden (mult=3)
  10   26559.5    376.5   spin forbidden (mult=3)

Dispersion correction           -0.130563968
FINAL SINGLE POINT ENERGY     -2225.411445351108
Dispersion correction                    ... done

DIPOLE MOMENT
-------------
                                X             Y             Z
Electronic contribution:     -0.00054      -3.28127       1.98331
Nuclear contribution   :      0.00025       3.17811      -1.93720
                        -----------------------------------------
Total Dipole Moment    :     -0.00029      -0.10316       0.04611
                        -----------------------------------------
Magnitude (a.u.)       :      0.11300
Magnitude (Debye)      :      0.28723

Rotational constants in cm-1:     0.005314     0.000246     0.000239
Rotational constants in MHz :   159.314582     7.372362     7.170179

                             ****ORCA TERMINATED NORMALLY****
TOTAL RUN TIME: 0 days 2 hours 5 minutes 58 seconds 392 msec
