                         Program Version 5.0.3 -  RELEASE  -
|  1> ! PBE0 def2-SVP D3BJ def2/J RIJCOSX tightSCF noautostart miniprint nopop defgrid3
|  2> ! EnGrad
|  3> %maxcore    4000
|  4> %pal    nprocs  8  end
|  5> %tddft  PrintLevel  3
|  6> 	IRootMult	Singlet
|  7> 	TDA	True
|  8> 	NRoots	5
|  9>         MaxDim  10
| 10> end
| 11> * xyzfile 0 1 orcaopt.xyz
| 12>
| 13>
| 14>                          ****END OF INPUT****

CARTESIAN COORDINATES (ANGSTROEM)
---------------------------------
  C      0.000032   -0.063185   -1.577331
  C     -0.000050   -0.065119   -0.045927
  C      0.000044    1.367151    0.495837
  C     -1.178812   -0.859067    0.501312
  C     -2.522573   -0.613459    0.338477
  C     -3.486494   -1.475400    0.934727
  C     -4.902041   -1.279040    0.812759
  C     -5.548811   -0.282668    0.129048
  C     -6.975507   -0.102660    0.031351
  C     -7.919037   -0.950725    0.665214
  C     -9.281404   -0.735230    0.551455
  C     -9.765918    0.333559   -0.212846
  N    -11.165427    0.551776   -0.329815
  C    -11.846017    1.655952    0.141414
  C    -11.342483    2.764338    0.830875
  C    -12.250888    3.748884    1.207513
  C    -13.617014    3.632019    0.912116
  C    -14.114014    2.515547    0.231891
  C    -13.227457    1.516644   -0.157871
  C    -13.368552    0.245731   -0.844436
  C    -14.441837   -0.451274   -1.390210
  C    -14.203073   -1.682523   -2.009271
  C    -12.906371   -2.211032   -2.090169
  C    -11.814763   -1.534595   -1.554322
  C    -12.063468   -0.308719   -0.927489
  C     -8.861543    1.186486   -0.856883
  C     -7.499392    0.970657   -0.728111
  C     -3.005603   -2.578688    1.688042
  C     -1.655915   -2.830010    1.854329
  C     -0.720799   -1.966304    1.259439
  C      0.720230   -1.966433    1.259513
  C      1.655132   -2.830342    1.854428
  C      3.004887   -2.579291    1.688233
  C      3.486043   -1.476057    0.935030
  C      4.901645   -1.279958    0.813155
  C      5.548617   -0.283210    0.130195
  C      6.975351   -0.103646    0.032235
  C      7.499378    0.970371   -0.726132
  C      8.861574    1.185701   -0.855284
  C      9.765831    0.331548   -0.212713
  N     11.165401    0.549120   -0.330250
  C     11.846957    1.652207    0.142114
  C     11.344545    2.759808    0.833646
  C     12.253768    3.743309    1.211047
  C     13.619594    3.626176    0.914378
  C     14.115467    2.510489    0.232043
  C     13.228074    1.512641   -0.158529
  C     13.367929    0.242729   -0.847207
  C     14.440369   -0.453955   -1.395053
  C     14.200414   -1.684080   -2.015885
  C     12.903369   -2.211794   -2.096476
  C     11.812584   -1.535656   -1.558582
  C     12.062482   -0.310901   -0.930037
  C      9.281175   -0.737885    0.550584
  C      7.918756   -0.952871    0.664717
  C      2.522337   -0.613919    0.338726
  C      1.178515   -0.859270    0.501437
  H      0.890788    0.453427   -1.967953
  H     -0.890682    0.453432   -1.968043
  H      0.000047   -1.090087   -1.970432
  H     -0.890594    1.915800    0.151362
  H      0.890746    1.915685    0.151342
  H      0.000056    1.370336    1.595404
  H     -2.852960    0.246972   -0.248124
  H     -5.509657   -2.024438    1.336139
  H     -4.951037    0.462627   -0.403424
  H     -7.571896   -1.790516    1.268812
  H     -9.986616   -1.391765    1.066218
  H    -10.279458    2.844309    1.063063
  H    -11.890800    4.627587    1.746988
  H    -14.303330    4.422869    1.221972
  H    -15.181179    2.430631    0.014673
  H    -15.454667   -0.045223   -1.339968
  H    -15.038028   -2.239275   -2.439813
  H    -12.747067   -3.171083   -2.585883
  H    -10.802276   -1.935921   -1.618846
  H     -9.235959    2.012724   -1.465142
  H     -6.803230    1.644151   -1.234301
  H     -3.737593   -3.246862    2.150121
  H     -1.326651   -3.689491    2.442794
  H      1.325652   -3.689764    2.442858
  H      3.736712   -3.247635    2.150327
  H      5.509103   -2.025868    1.335992
  H      4.950986    0.462872   -0.401334
  H      6.803301    1.644847   -1.231129
  H      9.236115    2.012542   -1.462644
  H     10.281741    2.839981    1.066783
  H     11.894570    4.621385    1.752134
  H     14.306571    4.416195    1.224890
  H     15.182410    2.425354    0.013828
  H     15.453459   -0.048525   -1.345038
  H     15.034698   -2.240562   -2.448076
  H     12.743137   -3.170974   -2.593577
  H     10.799831   -1.936361   -1.622798
  H      9.986335   -1.395371    1.064202
  H      7.571479   -1.793166    1.267537
  H      2.852933    0.246426   -0.247882

ORBITAL ENERGIES
----------------

  NO   OCC          E(Eh)            E(eV)
   0   2.0000     -14.445283      -393.0761
   1   2.0000     -14.445275      -393.0759
   2   2.0000     -10.292367      -280.0695
   3   2.0000     -10.292363      -280.0694
   4   2.0000     -10.273923      -279.5677
   5   2.0000     -10.273919      -279.5675
   6   2.0000     -10.273864      -279.5661
   7   2.0000     -10.273859      -279.5659
   8   2.0000     -10.265926      -279.3500
   9   2.0000     -10.263212      -279.2762
  10   2.0000     -10.263209      -279.2761
  11   2.0000     -10.259147      -279.1656
  12   2.0000     -10.259140      -279.1654
  13   2.0000     -10.255306      -279.0611
  14   2.0000     -10.255305      -279.0610
  15   2.0000     -10.255077      -279.0548
  16   2.0000     -10.255076      -279.0548
  17   2.0000     -10.254639      -279.0429
  18   2.0000     -10.254638      -279.0429
  19   2.0000     -10.254509      -279.0394
  20   2.0000     -10.254508      -279.0394
  21   2.0000     -10.254423      -279.0370
  22   2.0000     -10.254421      -279.0370
  23   2.0000     -10.253574      -279.0139
  24   2.0000     -10.253574      -279.0139
  25   2.0000     -10.252836      -278.9939
  26   2.0000     -10.252644      -278.9886
  27   2.0000     -10.250696      -278.9356
  28   2.0000     -10.250607      -278.9332
  29   2.0000     -10.250491      -278.9300
  30   2.0000     -10.250451      -278.9289
  31   2.0000     -10.249856      -278.9127
  32   2.0000     -10.249845      -278.9125
  33   2.0000     -10.249753      -278.9100
  34   2.0000     -10.249724      -278.9092
  35   2.0000     -10.239367      -278.6273
  36   2.0000     -10.239354      -278.6270
  37   2.0000     -10.238782      -278.6114
  38   2.0000     -10.238778      -278.6113
  39   2.0000     -10.238652      -278.6079
  40   2.0000     -10.238649      -278.6078
  41   2.0000     -10.237648      -278.5806
  42   2.0000     -10.237644      -278.5804
  43   2.0000     -10.237597      -278.5792
  44   2.0000     -10.237593      -278.5791
  45   2.0000     -10.237405      -278.5740
  46   2.0000     -10.237402      -278.5739
  47   2.0000     -10.237205      -278.5685
  48   2.0000     -10.237202      -278.5684
  49   2.0000     -10.236859      -278.5591
  50   2.0000     -10.236855      -278.5590
  51   2.0000     -10.236840      -278.5586
  52   2.0000     -10.236837      -278.5585
  53   2.0000     -10.230861      -278.3959
  54   2.0000     -10.230857      -278.3958
  55   2.0000     -10.230835      -278.3952
  56   2.0000     -10.230831      -278.3951
  57   2.0000      -1.023240       -27.8438
  58   2.0000      -1.023235       -27.8437
  59   2.0000      -0.925406       -25.1816
  60   2.0000      -0.901393       -24.5281
  61   2.0000      -0.901156       -24.5217
  62   2.0000      -0.883976       -24.0542
  63   2.0000      -0.869676       -23.6651
  64   2.0000      -0.867760       -23.6129
  65   2.0000      -0.866537       -23.5797
  66   2.0000      -0.866533       -23.5796
  67   2.0000      -0.855925       -23.2909
  68   2.0000      -0.830000       -22.5855
  69   2.0000      -0.828165       -22.5355
  70   2.0000      -0.813048       -22.1242
  71   2.0000      -0.802394       -21.8343
  72   2.0000      -0.791524       -21.5385
  73   2.0000      -0.782081       -21.2815
  74   2.0000      -0.781875       -21.2759
  75   2.0000      -0.777866       -21.1668
  76   2.0000      -0.771883       -21.0040
  77   2.0000      -0.767532       -20.8856
  78   2.0000      -0.767482       -20.8842
  79   2.0000      -0.763805       -20.7842
  80   2.0000      -0.756334       -20.5809
  81   2.0000      -0.745580       -20.2883
  82   2.0000      -0.734651       -19.9909
  83   2.0000      -0.734646       -19.9907
  84   2.0000      -0.730299       -19.8724
  85   2.0000      -0.713329       -19.4107
  86   2.0000      -0.710811       -19.3422
  87   2.0000      -0.689869       -18.7723
  88   2.0000      -0.670646       -18.2492
  89   2.0000      -0.669964       -18.2306
  90   2.0000      -0.653152       -17.7732
  91   2.0000      -0.648589       -17.6490
  92   2.0000      -0.646295       -17.5866
  93   2.0000      -0.638789       -17.3823
  94   2.0000      -0.630518       -17.1573
  95   2.0000      -0.623886       -16.9768
  96   2.0000      -0.623447       -16.9649
  97   2.0000      -0.617811       -16.8115
  98   2.0000      -0.610609       -16.6155
  99   2.0000      -0.600483       -16.3400
 100   2.0000      -0.596996       -16.2451
 101   2.0000      -0.589622       -16.0444
 102   2.0000      -0.589524       -16.0418
 103   2.0000      -0.588383       -16.0107
 104   2.0000      -0.580844       -15.8056
 105   2.0000      -0.568595       -15.4723
 106   2.0000      -0.557837       -15.1795
 107   2.0000      -0.557171       -15.1614
 108   2.0000      -0.536749       -14.6057
 109   2.0000      -0.534817       -14.5531
 110   2.0000      -0.533800       -14.5254
 111   2.0000      -0.529328       -14.4037
 112   2.0000      -0.525617       -14.3028
 113   2.0000      -0.522253       -14.2112
 114   2.0000      -0.516353       -14.0507
 115   2.0000      -0.509667       -13.8687
 116   2.0000      -0.506634       -13.7862
 117   2.0000      -0.491157       -13.3650
 118   2.0000      -0.487942       -13.2776
 119   2.0000      -0.478966       -13.0333
 120   2.0000      -0.478851       -13.0302
 121   2.0000      -0.469840       -12.7850
 122   2.0000      -0.469485       -12.7753
 123   2.0000      -0.468455       -12.7473
 124   2.0000      -0.467759       -12.7284
 125   2.0000      -0.467646       -12.7253
 126   2.0000      -0.464838       -12.6489
 127   2.0000      -0.460457       -12.5297
 128   2.0000      -0.458958       -12.4889
 129   2.0000      -0.454895       -12.3783
 130   2.0000      -0.452360       -12.3093
 131   2.0000      -0.452137       -12.3033
 132   2.0000      -0.451338       -12.2815
 133   2.0000      -0.450581       -12.2609
 134   2.0000      -0.449786       -12.2393
 135   2.0000      -0.448948       -12.2165
 136   2.0000      -0.446143       -12.1402
 137   2.0000      -0.442720       -12.0470
 138   2.0000      -0.439546       -11.9606
 139   2.0000      -0.439500       -11.9594
 140   2.0000      -0.439418       -11.9572
 141   2.0000      -0.436057       -11.8657
 142   2.0000      -0.430821       -11.7232
 143   2.0000      -0.430134       -11.7045
 144   2.0000      -0.418059       -11.3760
 145   2.0000      -0.415022       -11.2933
 146   2.0000      -0.412466       -11.2238
 147   2.0000      -0.409848       -11.1525
 148   2.0000      -0.407708       -11.0943
 149   2.0000      -0.403863       -10.9897
 150   2.0000      -0.401769       -10.9327
 151   2.0000      -0.397206       -10.8085
 152   2.0000      -0.391564       -10.6550
 153   2.0000      -0.390615       -10.6292
 154   2.0000      -0.389754       -10.6058
 155   2.0000      -0.377535       -10.2733
 156   2.0000      -0.377317       -10.2673
 157   2.0000      -0.377303       -10.2669
 158   2.0000      -0.377037       -10.2597
 159   2.0000      -0.374801       -10.1988
 160   2.0000      -0.372452       -10.1349
 161   2.0000      -0.371850       -10.1186
 162   2.0000      -0.371262       -10.1026
 163   2.0000      -0.368744       -10.0340
 164   2.0000      -0.367440        -9.9985
 165   2.0000      -0.366900        -9.9839
 166   2.0000      -0.354556        -9.6480
 167   2.0000      -0.353862        -9.6291
 168   2.0000      -0.351633        -9.5684
 169   2.0000      -0.348308        -9.4779
 170   2.0000      -0.348303        -9.4778
 171   2.0000      -0.345283        -9.3956
 172   2.0000      -0.341086        -9.2814
 173   2.0000      -0.339121        -9.2280
 174   2.0000      -0.337183        -9.1752
 175   2.0000      -0.328342        -8.9346
 176   2.0000      -0.306482        -8.3398
 177   2.0000      -0.297051        -8.0832
 178   2.0000      -0.296581        -8.0704
 179   2.0000      -0.285785        -7.7766
 180   2.0000      -0.285718        -7.7748
 181   2.0000      -0.279420        -7.6034
 182   2.0000      -0.274579        -7.4717
 183   2.0000      -0.273074        -7.4307
 184   2.0000      -0.267165        -7.2699
 185   2.0000      -0.267161        -7.2698
 186   2.0000      -0.239995        -6.5306
 187   2.0000      -0.229605        -6.2479
 188   2.0000      -0.229601        -6.2478
 189   2.0000      -0.218751        -5.9525
 190   2.0000      -0.212490        -5.7822
 191   2.0000      -0.203378        -5.5342
 192   0.0000      -0.089221        -2.4278
 193   0.0000      -0.061783        -1.6812
 194   0.0000      -0.030426        -0.8279
 195   0.0000      -0.030388        -0.8269
 196   0.0000      -0.023026        -0.6266

Total SCF time: 0 days 0 hours 49 min 58 sec

-----------------------------------------------------------------------------
         ABSORPTION SPECTRUM VIA TRANSITION ELECTRIC DIPOLE MOMENTS
-----------------------------------------------------------------------------
State   Energy    Wavelength  fosc         T2        TX        TY        TZ
        (cm-1)      (nm)                 (au**2)    (au)      (au)      (au)
-----------------------------------------------------------------------------
   1   22114.9    452.2   2.607441175  38.81544   6.23020  -0.00085   0.00009
   2   23910.2    418.2   0.015875136   0.21858   0.00053  -0.39773   0.24575
   3   25694.3    389.2   0.874484910  11.20445  -3.34731   0.00001  -0.00005
   4   27662.5    361.5   0.015732848   0.18724  -0.00011  -0.36583   0.23110
   5   27803.0    359.7   0.000003610   0.00004   0.00173   0.00581   0.00245

Dispersion correction           -0.130359230
FINAL SINGLE POINT ENERGY     -2225.377261429342
Dispersion correction                    ... done

DIPOLE MOMENT
-------------
                                X             Y             Z
Electronic contribution:     -0.00555      -2.44652       1.94878
Nuclear contribution   :      0.00028       2.99832      -2.28505
                        -----------------------------------------
Total Dipole Moment    :     -0.00527       0.55180      -0.33627
                        -----------------------------------------
Magnitude (a.u.)       :      0.64621
Magnitude (Debye)      :      1.64254

Rotational constants in cm-1:     0.005386     0.000245     0.000240
Rotational constants in MHz :   161.453270     7.344172     7.190553

                             ****ORCA TERMINATED NORMALLY****
TOTAL RUN TIME: 0 days 1 hours 54 minutes 39 seconds 248 msec
