                         Program Version 5.0.3 -  RELEASE  -
|  1> ! PBE0 def2-SVP D3BJ def2/J RIJCOSX tightSCF noautostart miniprint nopop defgrid3
|  2> ! EnGrad
|  3> %maxcore    4000
|  4> %pal    nprocs  8  end
|  5> %tddft  PrintLevel  3
|  6> 	IRootMult	Triplet
|  7> 	TDA	True
|  8> 	NRoots	5
|  9>         MaxDim  10
| 10> end
| 11> * xyzfile 0 1 orcaopt.xyz
| 12>
| 13>
| 14>                          ****END OF INPUT****

CARTESIAN COORDINATES (ANGSTROEM)
---------------------------------
  C     -3.791170    0.702543    0.557696
  C     -2.879422   -0.102859   -0.058137
  C     -1.446280   -0.026610    0.004689
  C     -0.709636    0.928835    0.730064
  N      0.612996    1.006530    0.788892
  C      1.385353    0.129068    0.121724
  C      2.810905    0.303775    0.249480
  C      3.789685   -0.446485   -0.332884
  C      5.210274   -0.231736   -0.181211
  C      5.778599    0.792838    0.614933
  C      7.147745    0.951640    0.720086
  C      8.015186    0.088658    0.031681
  N      9.411546    0.249015    0.134681
  C     10.313472   -0.746960    0.477438
  C     10.062974   -2.072506    0.845397
  C     11.159568   -2.867285    1.165803
  C     12.464544   -2.356083    1.134597
  C     12.705451   -1.023831    0.790471
  C     11.625922   -0.209654    0.461131
  C     11.494475    1.186867    0.090633
  C     12.402937    2.221504   -0.111757
  C     11.922781    3.472212   -0.507228
  C     10.552704    3.685238   -0.713961
  C      9.624594    2.665975   -0.522525
  C     10.109551    1.423551   -0.102987
  C      7.480090   -0.935685   -0.763582
  C      6.109057   -1.086194   -0.862761
  C      0.778673   -0.905530   -0.662234
  N      1.383460   -1.853973   -1.378116
  S      0.195350   -2.758484   -2.073021
  N     -1.123088   -1.976002   -1.469879
  C     -0.665613   -0.980248   -0.718257
  C     -5.226981    0.573276    0.447836
  C     -6.064995    1.465708    1.153604
  C     -7.445715    1.383408    1.085796
  C     -8.051233    0.397914    0.294965
  N     -9.454773    0.307056    0.217145
  C    -10.315443    1.344591   -0.113530
  C    -10.014274    2.660108   -0.476294
  C    -11.078102    3.501667   -0.786160
  C    -12.404923    3.048128   -0.747215
  C    -12.697511    1.729002   -0.405364
  C    -11.649579    0.865648   -0.087826
  C    -11.578580   -0.534586    0.275513
  C    -12.534454   -1.529515    0.477552
  C    -12.113236   -2.802426    0.858110
  C    -10.751616   -3.080175    1.049367
  C     -9.778157   -2.104855    0.857039
  C    -10.205097   -0.836302    0.455161
  C     -7.242381   -0.498603   -0.419503
  C     -5.864591   -0.413304   -0.341876
  H     -3.440356    1.520438    1.193443
  H     -3.238349   -0.921908   -0.689033
  H     -1.251063    1.687660    1.305733
  H      3.062709    1.149874    0.896605
  H      3.483991   -1.278376   -0.970162
  H      5.125204    1.465933    1.171876
  H      7.562937    1.730370    1.363156
  H      9.046387   -2.465029    0.890133
  H     10.996178   -3.907773    1.454288
  H     13.302597   -3.006526    1.393345
  H     13.723255   -0.627694    0.786265
  H     13.473592    2.057682    0.028724
  H     12.624423    4.293238   -0.668342
  H     10.204113    4.667671   -1.039262
  H      8.561177    2.826683   -0.703715
  H      8.150402   -1.589637   -1.324994
  H      5.698348   -1.876051   -1.495685
  H     -5.604979    2.232279    1.781965
  H     -8.069161    2.068088    1.664100
  H     -8.982807    3.011423   -0.524812
  H    -10.871762    4.535538   -1.071700
  H    -13.215925    3.735340   -0.996957
  H    -13.730834    1.375149   -0.392195
  H    -13.596833   -1.312953    0.344899
  H    -12.850853   -3.591547    1.018014
  H    -10.445895   -4.081258    1.361379
  H     -8.721827   -2.320479    1.022532
  H     -7.710059   -1.251054   -1.057597
  H     -5.262310   -1.116555   -0.918845

ORBITAL ENERGIES
----------------

  NO   OCC          E(Eh)            E(eV)
   0   2.0000     -89.113866     -2424.9116
   1   2.0000     -14.451858      -393.2551
   2   2.0000     -14.451172      -393.2364
   3   2.0000     -14.448489      -393.1634
   4   2.0000     -14.443991      -393.0410
   5   2.0000     -14.404373      -391.9629
   6   2.0000     -10.305764      -280.4341
   7   2.0000     -10.304480      -280.3992
   8   2.0000     -10.301044      -280.3057
   9   2.0000     -10.298199      -280.2282
  10   2.0000     -10.296334      -280.1775
  11   2.0000     -10.285643      -279.8866
  12   2.0000     -10.278634      -279.6958
  13   2.0000     -10.278580      -279.6944
  14   2.0000     -10.278057      -279.6801
  15   2.0000     -10.278001      -279.6786
  16   2.0000     -10.270669      -279.4791
  17   2.0000     -10.263763      -279.2912
  18   2.0000     -10.262767      -279.2641
  19   2.0000     -10.259631      -279.1788
  20   2.0000     -10.257733      -279.1271
  21   2.0000     -10.257233      -279.1135
  22   2.0000     -10.257114      -279.1103
  23   2.0000     -10.256982      -279.1067
  24   2.0000     -10.256722      -279.0996
  25   2.0000     -10.256543      -279.0947
  26   2.0000     -10.256169      -279.0845
  27   2.0000     -10.256152      -279.0841
  28   2.0000     -10.255948      -279.0785
  29   2.0000     -10.255803      -279.0746
  30   2.0000     -10.250713      -278.9361
  31   2.0000     -10.242389      -278.7096
  32   2.0000     -10.242246      -278.7057
  33   2.0000     -10.241901      -278.6963
  34   2.0000     -10.241831      -278.6944
  35   2.0000     -10.241822      -278.6941
  36   2.0000     -10.241699      -278.6908
  37   2.0000     -10.241540      -278.6865
  38   2.0000     -10.241417      -278.6831
  39   2.0000     -10.241390      -278.6824
  40   2.0000     -10.241341      -278.6811
  41   2.0000     -10.240884      -278.6686
  42   2.0000     -10.240678      -278.6630
  43   2.0000     -10.240527      -278.6589
  44   2.0000     -10.240423      -278.6561
  45   2.0000     -10.240094      -278.6471
  46   2.0000     -10.240078      -278.6467
  47   2.0000     -10.234721      -278.5009
  48   2.0000     -10.234638      -278.4987
  49   2.0000     -10.234168      -278.4859
  50   2.0000     -10.234151      -278.4854
  51   2.0000      -8.111084      -220.7138
  52   2.0000      -6.054324      -164.7465
  53   2.0000      -6.047045      -164.5485
  54   2.0000      -6.045543      -164.5076
  55   2.0000      -1.064333       -28.9620
  56   2.0000      -1.027606       -27.9626
  57   2.0000      -1.026454       -27.9312
  58   2.0000      -0.979442       -26.6520
  59   2.0000      -0.932042       -25.3621
  60   2.0000      -0.904220       -24.6051
  61   2.0000      -0.904197       -24.6045
  62   2.0000      -0.873699       -23.7746
  63   2.0000      -0.872950       -23.7542
  64   2.0000      -0.871025       -23.7018
  65   2.0000      -0.870613       -23.6906
  66   2.0000      -0.852546       -23.1990
  67   2.0000      -0.837215       -22.7818
  68   2.0000      -0.825533       -22.4639
  69   2.0000      -0.814893       -22.1744
  70   2.0000      -0.802352       -21.8331
  71   2.0000      -0.790700       -21.5161
  72   2.0000      -0.785681       -21.3795
  73   2.0000      -0.784983       -21.3605
  74   2.0000      -0.773600       -21.0507
  75   2.0000      -0.770797       -20.9745
  76   2.0000      -0.770499       -20.9663
  77   2.0000      -0.757658       -20.6169
  78   2.0000      -0.741648       -20.1813
  79   2.0000      -0.738582       -20.0978
  80   2.0000      -0.737633       -20.0720
  81   2.0000      -0.723952       -19.6997
  82   2.0000      -0.704483       -19.1699
  83   2.0000      -0.680713       -18.5231
  84   2.0000      -0.675352       -18.3773
  85   2.0000      -0.664407       -18.0794
  86   2.0000      -0.651934       -17.7400
  87   2.0000      -0.650640       -17.7048
  88   2.0000      -0.648976       -17.6595
  89   2.0000      -0.641225       -17.4486
  90   2.0000      -0.626290       -17.0422
  91   2.0000      -0.624862       -17.0034
  92   2.0000      -0.624378       -16.9902
  93   2.0000      -0.610075       -16.6010
  94   2.0000      -0.599560       -16.3149
  95   2.0000      -0.595629       -16.2079
  96   2.0000      -0.593418       -16.1477
  97   2.0000      -0.592856       -16.1324
  98   2.0000      -0.574393       -15.6300
  99   2.0000      -0.566348       -15.4111
 100   2.0000      -0.561065       -15.2673
 101   2.0000      -0.557524       -15.1710
 102   2.0000      -0.542411       -14.7598
 103   2.0000      -0.537807       -14.6345
 104   2.0000      -0.537370       -14.6226
 105   2.0000      -0.526829       -14.3358
 106   2.0000      -0.524245       -14.2654
 107   2.0000      -0.517314       -14.0768
 108   2.0000      -0.512997       -13.9593
 109   2.0000      -0.505590       -13.7578
 110   2.0000      -0.494079       -13.4446
 111   2.0000      -0.493217       -13.4211
 112   2.0000      -0.483380       -13.1534
 113   2.0000      -0.481828       -13.1112
 114   2.0000      -0.480012       -13.0618
 115   2.0000      -0.473442       -12.8830
 116   2.0000      -0.471949       -12.8424
 117   2.0000      -0.471509       -12.8304
 118   2.0000      -0.468573       -12.7505
 119   2.0000      -0.464737       -12.6461
 120   2.0000      -0.456844       -12.4313
 121   2.0000      -0.455282       -12.3889
 122   2.0000      -0.454009       -12.3542
 123   2.0000      -0.453276       -12.3343
 124   2.0000      -0.451709       -12.2916
 125   2.0000      -0.449967       -12.2442
 126   2.0000      -0.444080       -12.0840
 127   2.0000      -0.443598       -12.0709
 128   2.0000      -0.442723       -12.0471
 129   2.0000      -0.438602       -11.9350
 130   2.0000      -0.437723       -11.9110
 131   2.0000      -0.433995       -11.8096
 132   2.0000      -0.432275       -11.7628
 133   2.0000      -0.423086       -11.5127
 134   2.0000      -0.420838       -11.4516
 135   2.0000      -0.411316       -11.1925
 136   2.0000      -0.410748       -11.1770
 137   2.0000      -0.407500       -11.0886
 138   2.0000      -0.405446       -11.0327
 139   2.0000      -0.401590       -10.9278
 140   2.0000      -0.394106       -10.7242
 141   2.0000      -0.385089       -10.4788
 142   2.0000      -0.381512       -10.3815
 143   2.0000      -0.380706       -10.3595
 144   2.0000      -0.380518       -10.3544
 145   2.0000      -0.380090       -10.3428
 146   2.0000      -0.375643       -10.2218
 147   2.0000      -0.375292       -10.2122
 148   2.0000      -0.372678       -10.1411
 149   2.0000      -0.369507       -10.0548
 150   2.0000      -0.358681        -9.7602
 151   2.0000      -0.357811        -9.7365
 152   2.0000      -0.352725        -9.5981
 153   2.0000      -0.352482        -9.5915
 154   2.0000      -0.352087        -9.5808
 155   2.0000      -0.350883        -9.5480
 156   2.0000      -0.346698        -9.4341
 157   2.0000      -0.333746        -9.0817
 158   2.0000      -0.328972        -8.9518
 159   2.0000      -0.327156        -8.9024
 160   2.0000      -0.310744        -8.4558
 161   2.0000      -0.301304        -8.1989
 162   2.0000      -0.300342        -8.1727
 163   2.0000      -0.292018        -7.9462
 164   2.0000      -0.287893        -7.8340
 165   2.0000      -0.287228        -7.8159
 166   2.0000      -0.284650        -7.7457
 167   2.0000      -0.271416        -7.3856
 168   2.0000      -0.271327        -7.3832
 169   2.0000      -0.261887        -7.1263
 170   2.0000      -0.233593        -6.3564
 171   2.0000      -0.232638        -6.3304
 172   2.0000      -0.229190        -6.2366
 173   2.0000      -0.216628        -5.8947
 174   2.0000      -0.206064        -5.6073
 175   0.0000      -0.120912        -3.2902
 176   0.0000      -0.067864        -1.8467
 177   0.0000      -0.052551        -1.4300
 178   0.0000      -0.034305        -0.9335
 179   0.0000      -0.034050        -0.9266

Total SCF time: 0 days 0 hours 42 min 11 sec

-----------------------------------------------------------------------------
         ABSORPTION SPECTRUM VIA TRANSITION ELECTRIC DIPOLE MOMENTS
-----------------------------------------------------------------------------
State   Energy    Wavelength  fosc         T2        TX        TY        TZ
        (cm-1)      (nm)                 (au**2)    (au)      (au)      (au)
-----------------------------------------------------------------------------
   1   16221.9    616.5   1.217187517  24.70197   4.97006  -0.00915  -0.02035
   2   18303.7    546.3   0.006580289   0.11835  -0.20128  -0.22884  -0.15960
   3   21304.7    469.4   0.188312545   2.90991  -1.70461   0.05047   0.04081
   4   21813.6    458.4   0.000011651   0.00018   0.00498  -0.01148   0.00439
   5   21831.5    458.1   0.000012805   0.00019   0.00698  -0.01129   0.00413
   6    9647.9   1036.5   spin forbidden (mult=3)
   7   16563.9    603.7   spin forbidden (mult=3)
   8   18471.8    541.4   spin forbidden (mult=3)
   9   20749.2    481.9   spin forbidden (mult=3)
  10   21662.2    461.6   spin forbidden (mult=3)

Dispersion correction           -0.109895083
FINAL SINGLE POINT ENERGY     -2400.291399247854
Dispersion correction                    ... done

DIPOLE MOMENT
-------------
                                X             Y             Z
Electronic contribution:      0.98510      -7.94273      -5.74927
Nuclear contribution   :     -1.73935       8.28749       6.00024
                        -----------------------------------------
Total Dipole Moment    :     -0.75425       0.34476       0.25096
                        -----------------------------------------
Magnitude (a.u.)       :      0.86645
Magnitude (Debye)      :      2.20234

Rotational constants in cm-1:     0.006486     0.000342     0.000330
Rotational constants in MHz :   194.441960    10.238192     9.897186

                             ****ORCA TERMINATED NORMALLY****
TOTAL RUN TIME: 0 days 1 hours 45 minutes 16 seconds 398 msec
