                         Program Version 5.0.3 -  RELEASE  -
|  1> ! PBE0 def2-SVP D3BJ def2/J RIJCOSX tightSCF noautostart miniprint nopop defgrid3 Opt
|  2> %maxcore    4000
|  3> %pal    nprocs  40  end
|  4> %geom	Convergence	loose
|  5> 	MaxIter	5
|  6> end
|  7> %tddft  PrintLevel  3
|  8> 	IRootMult	Singlet
|  9> 	NRoots	5
| 10> 	IRoot	1
| 11> 	TDA	True
| 12>         MaxDim  10
| 13> end
| 14> * xyzfile 0 1 S0_XTB_OPT_XYZ.xyz
| 15>
| 16>
| 17>                          ****END OF INPUT****

ORBITAL ENERGIES
----------------

  NO   OCC          E(Eh)            E(eV)
   0   2.0000     -14.442546      -393.0017
   1   2.0000     -14.441380      -392.9699
   2   2.0000     -14.381982      -391.3536
   3   2.0000     -14.380748      -391.3201
   4   2.0000     -14.378864      -391.2688
   5   2.0000     -10.284312      -279.8504
   6   2.0000     -10.282713      -279.8068
   7   2.0000     -10.276154      -279.6284
   8   2.0000     -10.275632      -279.6142
   9   2.0000     -10.275270      -279.6043
  10   2.0000     -10.275129      -279.6005
  11   2.0000     -10.275097      -279.5996
  12   2.0000     -10.274191      -279.5750
  13   2.0000     -10.266609      -279.3686
  14   2.0000     -10.266034      -279.3530
  15   2.0000     -10.265486      -279.3381
  16   2.0000     -10.264932      -279.3230
  17   2.0000     -10.258493      -279.1478
  18   2.0000     -10.255913      -279.0776
  19   2.0000     -10.255572      -279.0683
  20   2.0000     -10.249541      -278.9042
  21   2.0000     -10.249098      -278.8921
  22   2.0000     -10.246007      -278.8080
  23   2.0000     -10.245958      -278.8067
  24   2.0000     -10.245566      -278.7960
  25   2.0000     -10.245000      -278.7806
  26   2.0000     -10.244947      -278.7792
  27   2.0000     -10.244630      -278.7706
  28   2.0000     -10.243247      -278.7329
  29   2.0000     -10.242347      -278.7084
  30   2.0000     -10.241634      -278.6890
  31   2.0000     -10.241273      -278.6792
  32   2.0000     -10.241073      -278.6738
  33   2.0000     -10.240721      -278.6642
  34   2.0000     -10.240587      -278.6605
  35   2.0000     -10.239698      -278.6364
  36   2.0000     -10.237337      -278.5721
  37   2.0000     -10.236080      -278.5379
  38   2.0000     -10.234134      -278.4849
  39   2.0000     -10.232541      -278.4416
  40   2.0000     -10.229454      -278.3576
  41   2.0000     -10.229382      -278.3556
  42   2.0000     -10.229054      -278.3467
  43   2.0000     -10.228891      -278.3423
  44   2.0000     -10.228837      -278.3408
  45   2.0000     -10.228773      -278.3391
  46   2.0000     -10.228596      -278.3342
  47   2.0000     -10.228233      -278.3244
  48   2.0000     -10.228142      -278.3219
  49   2.0000     -10.227541      -278.3055
  50   2.0000     -10.227408      -278.3019
  51   2.0000     -10.227248      -278.2976
  52   2.0000     -10.226910      -278.2884
  53   2.0000     -10.226652      -278.2813
  54   2.0000     -10.225115      -278.2395
  55   2.0000     -10.224779      -278.2304
  56   2.0000     -10.222235      -278.1612
  57   2.0000     -10.221643      -278.1450
  58   2.0000     -10.221127      -278.1310
  59   2.0000     -10.220307      -278.1087
  60   2.0000      -1.022887       -27.8342
  61   2.0000      -1.020163       -27.7600
  62   2.0000      -0.989740       -26.9322
  63   2.0000      -0.975181       -26.5360
  64   2.0000      -0.959446       -26.1078
  65   2.0000      -0.900056       -24.4918
  66   2.0000      -0.895761       -24.3749
  67   2.0000      -0.869674       -23.6650
  68   2.0000      -0.867946       -23.6180
  69   2.0000      -0.864762       -23.5314
  70   2.0000      -0.864073       -23.5126
  71   2.0000      -0.841813       -22.9069
  72   2.0000      -0.833206       -22.6727
  73   2.0000      -0.831949       -22.6385
  74   2.0000      -0.827561       -22.5191
  75   2.0000      -0.821571       -22.3561
  76   2.0000      -0.816106       -22.2074
  77   2.0000      -0.807859       -21.9830
  78   2.0000      -0.794241       -21.6124
  79   2.0000      -0.784816       -21.3559
  80   2.0000      -0.778912       -21.1953
  81   2.0000      -0.776898       -21.1405
  82   2.0000      -0.770945       -20.9785
  83   2.0000      -0.764181       -20.7944
  84   2.0000      -0.763393       -20.7730
  85   2.0000      -0.757661       -20.6170
  86   2.0000      -0.748268       -20.3614
  87   2.0000      -0.730975       -19.8909
  88   2.0000      -0.728478       -19.8229
  89   2.0000      -0.727912       -19.8075
  90   2.0000      -0.722143       -19.6505
  91   2.0000      -0.686140       -18.6708
  92   2.0000      -0.681403       -18.5419
  93   2.0000      -0.676071       -18.3968
  94   2.0000      -0.671972       -18.2853
  95   2.0000      -0.651099       -17.7173
  96   2.0000      -0.649861       -17.6836
  97   2.0000      -0.645254       -17.5582
  98   2.0000      -0.642517       -17.4838
  99   2.0000      -0.631803       -17.1922
 100   2.0000      -0.629834       -17.1387
 101   2.0000      -0.624520       -16.9941
 102   2.0000      -0.616906       -16.7869
 103   2.0000      -0.615445       -16.7471
 104   2.0000      -0.613473       -16.6935
 105   2.0000      -0.596705       -16.2372
 106   2.0000      -0.594263       -16.1707
 107   2.0000      -0.586383       -15.9563
 108   2.0000      -0.585757       -15.9393
 109   2.0000      -0.580908       -15.8073
 110   2.0000      -0.575989       -15.6735
 111   2.0000      -0.556804       -15.1514
 112   2.0000      -0.555774       -15.1234
 113   2.0000      -0.554960       -15.1012
 114   2.0000      -0.538398       -14.6505
 115   2.0000      -0.532256       -14.4834
 116   2.0000      -0.530724       -14.4417
 117   2.0000      -0.526808       -14.3352
 118   2.0000      -0.525512       -14.2999
 119   2.0000      -0.518409       -14.1066
 120   2.0000      -0.517991       -14.0953
 121   2.0000      -0.511790       -13.9265
 122   2.0000      -0.505051       -13.7431
 123   2.0000      -0.504730       -13.7344
 124   2.0000      -0.496938       -13.5224
 125   2.0000      -0.492269       -13.3953
 126   2.0000      -0.483810       -13.1651
 127   2.0000      -0.480086       -13.0638
 128   2.0000      -0.475850       -12.9485
 129   2.0000      -0.473371       -12.8811
 130   2.0000      -0.471713       -12.8360
 131   2.0000      -0.467914       -12.7326
 132   2.0000      -0.464839       -12.6489
 133   2.0000      -0.463233       -12.6052
 134   2.0000      -0.460263       -12.5244
 135   2.0000      -0.458271       -12.4702
 136   2.0000      -0.450866       -12.2687
 137   2.0000      -0.449488       -12.2312
 138   2.0000      -0.447464       -12.1761
 139   2.0000      -0.446727       -12.1561
 140   2.0000      -0.445024       -12.1097
 141   2.0000      -0.443696       -12.0736
 142   2.0000      -0.443006       -12.0548
 143   2.0000      -0.440584       -11.9889
 144   2.0000      -0.437183       -11.8964
 145   2.0000      -0.435405       -11.8480
 146   2.0000      -0.434815       -11.8319
 147   2.0000      -0.431589       -11.7441
 148   2.0000      -0.427670       -11.6375
 149   2.0000      -0.427440       -11.6312
 150   2.0000      -0.426001       -11.5921
 151   2.0000      -0.423201       -11.5159
 152   2.0000      -0.420471       -11.4416
 153   2.0000      -0.418575       -11.3900
 154   2.0000      -0.411937       -11.2094
 155   2.0000      -0.410741       -11.1768
 156   2.0000      -0.403034       -10.9671
 157   2.0000      -0.401527       -10.9261
 158   2.0000      -0.400545       -10.8994
 159   2.0000      -0.396776       -10.7968
 160   2.0000      -0.388998       -10.5852
 161   2.0000      -0.386090       -10.5060
 162   2.0000      -0.379805       -10.3350
 163   2.0000      -0.376774       -10.2525
 164   2.0000      -0.374178       -10.1819
 165   2.0000      -0.373556       -10.1650
 166   2.0000      -0.372324       -10.1315
 167   2.0000      -0.368677       -10.0322
 168   2.0000      -0.366713        -9.9788
 169   2.0000      -0.363992        -9.9047
 170   2.0000      -0.358960        -9.7678
 171   2.0000      -0.358022        -9.7423
 172   2.0000      -0.355842        -9.6829
 173   2.0000      -0.346870        -9.4388
 174   2.0000      -0.346792        -9.4367
 175   2.0000      -0.343973        -9.3600
 176   2.0000      -0.343148        -9.3375
 177   2.0000      -0.338176        -9.2022
 178   2.0000      -0.335586        -9.1318
 179   2.0000      -0.324065        -8.8183
 180   2.0000      -0.316170        -8.6034
 181   2.0000      -0.313824        -8.5396
 182   2.0000      -0.300481        -8.1765
 183   2.0000      -0.297331        -8.0908
 184   2.0000      -0.292809        -7.9677
 185   2.0000      -0.290054        -7.8928
 186   2.0000      -0.285834        -7.7779
 187   2.0000      -0.278727        -7.5845
 188   2.0000      -0.271253        -7.3812
 189   2.0000      -0.269237        -7.3263
 190   2.0000      -0.265357        -7.2207
 191   2.0000      -0.264075        -7.1859
 192   2.0000      -0.262134        -7.1330
 193   2.0000      -0.257741        -7.0135
 194   2.0000      -0.256084        -6.9684
 195   2.0000      -0.235732        -6.4146
 196   2.0000      -0.230028        -6.2594
 197   2.0000      -0.229450        -6.2436
 198   2.0000      -0.212447        -5.7810
 199   2.0000      -0.208539        -5.6746
 200   2.0000      -0.198703        -5.4070
 201   0.0000      -0.064264        -1.7487
 202   0.0000      -0.060533        -1.6472
 203   0.0000      -0.050207        -1.3662
 204   0.0000      -0.044075        -1.1994
 205   0.0000      -0.025468        -0.6930

Total SCF time: 0 days 0 hours 3 min 31 sec

Dispersion correction           -0.163444828
FINAL SINGLE POINT ENERGY     -2387.507545224815
Dispersion correction                    ... done
Dispersion correction           -0.173089528
FINAL SINGLE POINT ENERGY     -2386.534356162589
Dispersion correction                    ... done
Dispersion correction           -0.163456084
FINAL SINGLE POINT ENERGY     -2387.520391733439
Dispersion correction                    ... done
Dispersion correction           -0.158123924
FINAL SINGLE POINT ENERGY     -2387.516461007632
Dispersion correction                    ... done

CARTESIAN COORDINATES (ANGSTROEM)
---------------------------------
  C      2.306033    2.173312   -0.671397
  C      2.944793    3.299342   -0.181409
  C      4.358419    3.411341    0.005462
  C      4.937330    4.632303    0.455909
  C      6.304723    4.720341    0.617516
  C      7.104032    3.600662    0.335020
  C      6.455269    2.432463   -0.093887
  C      7.240801    1.200652   -0.393759
  C      8.474973    1.271137   -1.061139
  C      9.152471    0.089357   -1.338408
  C      8.595120   -1.120493   -0.935605
  C      7.367113   -1.092750   -0.260231
  C      6.704017   -2.345010    0.203554
  C      7.440497   -3.506518    0.501413
  C      6.753500   -4.646145    0.909033
  C      5.368054   -4.598548    1.015536
  C      4.716068   -3.388221    0.721792
  C      3.265994   -3.270444    0.848743
  C      2.610600   -2.089368    0.790839
  C      1.166652   -1.942542    0.887986
  C      0.602649   -0.707230    1.263053
  C     -0.771638   -0.539479    1.348246
  C     -1.624911   -1.605233    1.032811
  N     -3.021481   -1.451321    1.086004
  C     -3.915723   -1.854358    0.102406
  C     -3.661414   -2.332631   -1.190084
  C     -4.753097   -2.639702   -1.991627
  C     -6.067734   -2.463108   -1.529872
  C     -6.318077   -1.967690   -0.249282
  C     -5.238853   -1.648092    0.569298
  C     -5.122981   -1.080673    1.898783
  C     -6.049339   -0.672126    2.850127
  C     -5.586503   -0.174361    4.073893
  C     -4.215282   -0.095913    4.344751
  C     -3.269344   -0.497734    3.403514
  C     -3.738366   -0.971904    2.175421
  C     -1.082002   -2.843039    0.652491
  C      0.288648   -3.004721    0.584726
  N      5.383852   -2.304041    0.323773
  N      6.716233    0.040099   -0.008131
  N      5.143940    2.335781   -0.254495
  C      0.896816    2.024281   -0.850980
  C      0.351197    0.833530   -1.408947
  C     -1.013039    0.634090   -1.526686
  C     -1.917735    1.633896   -1.118325
  N     -3.325140    1.431398   -1.192495
  C     -4.230036    1.731418   -0.194173
  C     -3.999320    2.183039    1.115714
  C     -5.103140    2.433081    1.920187
  C     -6.413521    2.216553    1.456423
  C     -6.643055    1.731270    0.169483
  C     -5.551143    1.481608   -0.660938
  C     -5.414114    0.964864   -2.002532
  C     -6.322640    0.509104   -2.954083
  C     -5.844363    0.091082   -4.200044
  C     -4.474504    0.142726   -4.492533
  C     -3.546007    0.587347   -3.551890
  C     -4.025322    0.976729   -2.296366
  C     -1.405616    2.845894   -0.623209
  C     -0.044844    3.032589   -0.479927
  H      2.938430    1.322135   -0.943895
  H      2.370695    4.194019    0.080507
  H      4.294114    5.491506    0.665663
  H      6.761829    5.650602    0.967216
  H      8.186763    3.624861    0.475865
  H      8.873540    2.237018   -1.378453
  H     10.102785    0.107467   -1.879067
  H      9.091959   -2.065635   -1.165590
  H      8.529915   -3.509072    0.434912
  H      7.297756   -5.563303    1.149716
  H      4.794164   -5.473681    1.331559
  H      2.720935   -4.203991    1.027477
  H      3.209403   -1.177265    0.673211
  H      1.261774    0.140635    1.463123
  H     -1.188275    0.439533    1.594725
  H     -2.641562   -2.441872   -1.559733
  H     -4.583911   -2.996380   -3.009387
  H     -6.902806   -2.689450   -2.196170
  H     -7.341094   -1.805578    0.098080
  H     -7.119898   -0.737130    2.644711
  H     -6.302076    0.151958    4.832142
  H     -3.877842    0.282248    5.312381
  H     -2.202390   -0.453948    3.626309
  H     -1.747763   -3.681113    0.436298
  H      0.695149   -3.970121    0.275197
  H      1.036301    0.042656   -1.725998
  H     -1.390215   -0.313973   -1.917223
  H     -2.985497    2.342436    1.486283
  H     -4.947204    2.790845    2.940485
  H     -7.258549    2.417235    2.119438
  H     -7.660424    1.544924   -0.184834
  H     -7.391008    0.473841   -2.726195
  H     -6.543511   -0.268646   -4.959148
  H     -4.124064   -0.168650   -5.479795
  H     -2.483166    0.638082   -3.791303
  H     -2.096212    3.649941   -0.356247
  H      0.313895    3.981261   -0.076533

-----------------------------------------------------------------------------
         ABSORPTION SPECTRUM VIA TRANSITION ELECTRIC DIPOLE MOMENTS
-----------------------------------------------------------------------------
State   Energy    Wavelength  fosc         T2        TX        TY        TZ
        (cm-1)      (nm)                 (au**2)    (au)      (au)      (au)
-----------------------------------------------------------------------------
   1   22437.4    445.7   0.121995017   1.78997  -1.28699  -0.32397  -0.16937
   2   24890.3    401.8   0.113846565   1.50579  -1.08006  -0.51613  -0.26995
   3   25659.1    389.7   0.600481315   7.70432  -2.76989   0.16368  -0.07244
   4   27490.2    363.8   0.001923726   0.02304  -0.12990  -0.07289  -0.02915
   5   27781.1    360.0   0.195674277   2.31878   1.51750  -0.07294  -0.10318

Dispersion correction           -0.160647251
FINAL SINGLE POINT ENERGY     -2387.524131892651
Dispersion correction                    ... done

DIPOLE MOMENT
-------------
                                X             Y             Z
Electronic contribution:      2.89934      -4.10657       1.37173
Nuclear contribution   :     -7.76880       0.13499       0.20995
                        -----------------------------------------
Total Dipole Moment    :     -4.86946      -3.97158       1.58168
                        -----------------------------------------
Magnitude (a.u.)       :      6.47972
Magnitude (Debye)      :     16.47014

Rotational constants in cm-1:     0.002755     0.000789     0.000722
Rotational constants in MHz :    82.580461    23.660320    21.633990

                             ****ORCA TERMINATED NORMALLY****
TOTAL RUN TIME: 0 days 0 hours 56 minutes 20 seconds 213 msec
