                         Program Version 5.0.3 -  RELEASE  -
|  1> ! PBE0 def2-SVP D3BJ def2/J RIJCOSX tightSCF noautostart miniprint nopop defgrid3 Opt
|  2> %maxcore    4000
|  3> %pal    nprocs  40  end
|  4> %geom	Convergence	loose
|  5> 	MaxIter	5
|  6> end
|  7> %tddft  PrintLevel  3
|  8> 	IRootMult	Triplet
|  9> 	NRoots	5
| 10> 	IRoot	1
| 11> 	TDA	True
| 12>         MaxDim  10
| 13> end
| 14> * xyzfile 0 1 T1_XTB_OPT_XYZ.xyz
| 15>
| 16>
| 17>                          ****END OF INPUT****

ORBITAL ENERGIES
----------------

  NO   OCC          E(Eh)            E(eV)
   0   2.0000     -14.447132      -393.1264
   1   2.0000     -14.442340      -392.9960
   2   2.0000     -14.379487      -391.2857
   3   2.0000     -14.377724      -391.2378
   4   2.0000     -14.377249      -391.2248
   5   2.0000     -10.289617      -279.9947
   6   2.0000     -10.283350      -279.8242
   7   2.0000     -10.274582      -279.5856
   8   2.0000     -10.274562      -279.5850
   9   2.0000     -10.274203      -279.5753
  10   2.0000     -10.273664      -279.5606
  11   2.0000     -10.273191      -279.5477
  12   2.0000     -10.271668      -279.5063
  13   2.0000     -10.269389      -279.4443
  14   2.0000     -10.268088      -279.4089
  15   2.0000     -10.266940      -279.3776
  16   2.0000     -10.265887      -279.3490
  17   2.0000     -10.256711      -279.0993
  18   2.0000     -10.254817      -279.0477
  19   2.0000     -10.252708      -278.9904
  20   2.0000     -10.248898      -278.8867
  21   2.0000     -10.247950      -278.8609
  22   2.0000     -10.247005      -278.8352
  23   2.0000     -10.246701      -278.8269
  24   2.0000     -10.245325      -278.7895
  25   2.0000     -10.245309      -278.7890
  26   2.0000     -10.244713      -278.7728
  27   2.0000     -10.244464      -278.7660
  28   2.0000     -10.244012      -278.7537
  29   2.0000     -10.243724      -278.7459
  30   2.0000     -10.243168      -278.7308
  31   2.0000     -10.242731      -278.7189
  32   2.0000     -10.242714      -278.7184
  33   2.0000     -10.242104      -278.7018
  34   2.0000     -10.241569      -278.6873
  35   2.0000     -10.240992      -278.6716
  36   2.0000     -10.239891      -278.6416
  37   2.0000     -10.237828      -278.5855
  38   2.0000     -10.236053      -278.5372
  39   2.0000     -10.232608      -278.4434
  40   2.0000     -10.231526      -278.4140
  41   2.0000     -10.231491      -278.4130
  42   2.0000     -10.231429      -278.4113
  43   2.0000     -10.230427      -278.3841
  44   2.0000     -10.230393      -278.3831
  45   2.0000     -10.230064      -278.3742
  46   2.0000     -10.230010      -278.3727
  47   2.0000     -10.229808      -278.3672
  48   2.0000     -10.229754      -278.3657
  49   2.0000     -10.229458      -278.3577
  50   2.0000     -10.228840      -278.3409
  51   2.0000     -10.228539      -278.3327
  52   2.0000     -10.227993      -278.3178
  53   2.0000     -10.227671      -278.3091
  54   2.0000     -10.227135      -278.2945
  55   2.0000     -10.225996      -278.2635
  56   2.0000     -10.224192      -278.2144
  57   2.0000     -10.223489      -278.1953
  58   2.0000     -10.222231      -278.1611
  59   2.0000     -10.221682      -278.1461
  60   2.0000      -1.026528       -27.9332
  61   2.0000      -1.021726       -27.8026
  62   2.0000      -0.987498       -26.8712
  63   2.0000      -0.971445       -26.4344
  64   2.0000      -0.956137       -26.0178
  65   2.0000      -0.900079       -24.4924
  66   2.0000      -0.895575       -24.3698
  67   2.0000      -0.870934       -23.6993
  68   2.0000      -0.869539       -23.6614
  69   2.0000      -0.865677       -23.5563
  70   2.0000      -0.864976       -23.5372
  71   2.0000      -0.840773       -22.8786
  72   2.0000      -0.832106       -22.6428
  73   2.0000      -0.830629       -22.6026
  74   2.0000      -0.824933       -22.4476
  75   2.0000      -0.819445       -22.2982
  76   2.0000      -0.815984       -22.2040
  77   2.0000      -0.808669       -22.0050
  78   2.0000      -0.794072       -21.6078
  79   2.0000      -0.785801       -21.3827
  80   2.0000      -0.782310       -21.2877
  81   2.0000      -0.777745       -21.1635
  82   2.0000      -0.771329       -20.9889
  83   2.0000      -0.766352       -20.8535
  84   2.0000      -0.764186       -20.7945
  85   2.0000      -0.757268       -20.6063
  86   2.0000      -0.748505       -20.3679
  87   2.0000      -0.732577       -19.9344
  88   2.0000      -0.730062       -19.8660
  89   2.0000      -0.727363       -19.7926
  90   2.0000      -0.720261       -19.5993
  91   2.0000      -0.688210       -18.7271
  92   2.0000      -0.680395       -18.5145
  93   2.0000      -0.677779       -18.4433
  94   2.0000      -0.670711       -18.2510
  95   2.0000      -0.651060       -17.7162
  96   2.0000      -0.649854       -17.6834
  97   2.0000      -0.645159       -17.5557
  98   2.0000      -0.642739       -17.4898
  99   2.0000      -0.631540       -17.1851
 100   2.0000      -0.629665       -17.1341
 101   2.0000      -0.623171       -16.9574
 102   2.0000      -0.617848       -16.8125
 103   2.0000      -0.616352       -16.7718
 104   2.0000      -0.612103       -16.6562
 105   2.0000      -0.599000       -16.2996
 106   2.0000      -0.594832       -16.1862
 107   2.0000      -0.588139       -16.0041
 108   2.0000      -0.586576       -15.9615
 109   2.0000      -0.581486       -15.8230
 110   2.0000      -0.576616       -15.6905
 111   2.0000      -0.558230       -15.1902
 112   2.0000      -0.555840       -15.1252
 113   2.0000      -0.554696       -15.0940
 114   2.0000      -0.536935       -14.6108
 115   2.0000      -0.534069       -14.5327
 116   2.0000      -0.531618       -14.4661
 117   2.0000      -0.527363       -14.3503
 118   2.0000      -0.525171       -14.2906
 119   2.0000      -0.518380       -14.1058
 120   2.0000      -0.517258       -14.0753
 121   2.0000      -0.512009       -13.9325
 122   2.0000      -0.505526       -13.7561
 123   2.0000      -0.504699       -13.7335
 124   2.0000      -0.496538       -13.5115
 125   2.0000      -0.491954       -13.3868
 126   2.0000      -0.482423       -13.1274
 127   2.0000      -0.480519       -13.0756
 128   2.0000      -0.477332       -12.9889
 129   2.0000      -0.473865       -12.8945
 130   2.0000      -0.471332       -12.8256
 131   2.0000      -0.469757       -12.7827
 132   2.0000      -0.465460       -12.6658
 133   2.0000      -0.463339       -12.6081
 134   2.0000      -0.461067       -12.5463
 135   2.0000      -0.458131       -12.4664
 136   2.0000      -0.452212       -12.3053
 137   2.0000      -0.449545       -12.2327
 138   2.0000      -0.447544       -12.1783
 139   2.0000      -0.446343       -12.1456
 140   2.0000      -0.445024       -12.1097
 141   2.0000      -0.444094       -12.0844
 142   2.0000      -0.443364       -12.0646
 143   2.0000      -0.441159       -12.0045
 144   2.0000      -0.438578       -11.9343
 145   2.0000      -0.436664       -11.8822
 146   2.0000      -0.436027       -11.8649
 147   2.0000      -0.429673       -11.6920
 148   2.0000      -0.428610       -11.6631
 149   2.0000      -0.428498       -11.6600
 150   2.0000      -0.426630       -11.6092
 151   2.0000      -0.422959       -11.5093
 152   2.0000      -0.418071       -11.3763
 153   2.0000      -0.416664       -11.3380
 154   2.0000      -0.411230       -11.1901
 155   2.0000      -0.410374       -11.1668
 156   2.0000      -0.402348       -10.9484
 157   2.0000      -0.400700       -10.9036
 158   2.0000      -0.399119       -10.8606
 159   2.0000      -0.396710       -10.7950
 160   2.0000      -0.390702       -10.6316
 161   2.0000      -0.387618       -10.5476
 162   2.0000      -0.382687       -10.4134
 163   2.0000      -0.380768       -10.3612
 164   2.0000      -0.375902       -10.2288
 165   2.0000      -0.375148       -10.2083
 166   2.0000      -0.373514       -10.1638
 167   2.0000      -0.372701       -10.1417
 168   2.0000      -0.368217       -10.0197
 169   2.0000      -0.365639        -9.9495
 170   2.0000      -0.358981        -9.7684
 171   2.0000      -0.358082        -9.7439
 172   2.0000      -0.354469        -9.6456
 173   2.0000      -0.348020        -9.4701
 174   2.0000      -0.347504        -9.4561
 175   2.0000      -0.345880        -9.4119
 176   2.0000      -0.344081        -9.3629
 177   2.0000      -0.338133        -9.2011
 178   2.0000      -0.335162        -9.1202
 179   2.0000      -0.323336        -8.7984
 180   2.0000      -0.315378        -8.5819
 181   2.0000      -0.311922        -8.4878
 182   2.0000      -0.299663        -8.1542
 183   2.0000      -0.296909        -8.0793
 184   2.0000      -0.295908        -8.0521
 185   2.0000      -0.289733        -7.8840
 186   2.0000      -0.289122        -7.8674
 187   2.0000      -0.278691        -7.5836
 188   2.0000      -0.274057        -7.4575
 189   2.0000      -0.267564        -7.2808
 190   2.0000      -0.265509        -7.2249
 191   2.0000      -0.260673        -7.0933
 192   2.0000      -0.259743        -7.0680
 193   2.0000      -0.255557        -6.9541
 194   2.0000      -0.254853        -6.9349
 195   2.0000      -0.234554        -6.3825
 196   2.0000      -0.228849        -6.2273
 197   2.0000      -0.225928        -6.1478
 198   2.0000      -0.216308        -5.8860
 199   2.0000      -0.206786        -5.6269
 200   2.0000      -0.195979        -5.3329
 201   0.0000      -0.077655        -2.1131
 202   0.0000      -0.061709        -1.6792
 203   0.0000      -0.049114        -1.3365
 204   0.0000      -0.039561        -1.0765
 205   0.0000      -0.027892        -0.7590

Total SCF time: 0 days 0 hours 3 min 34 sec

Dispersion correction           -0.164117360
FINAL SINGLE POINT ENERGY     -2387.546597589885
Dispersion correction                    ... done
Dispersion correction           -0.165916471
FINAL SINGLE POINT ENERGY     -2387.464071874933
Dispersion correction                    ... done
Dispersion correction           -0.163644091
FINAL SINGLE POINT ENERGY     -2387.512371775944
Dispersion correction                    ... done
Dispersion correction           -0.156340749
FINAL SINGLE POINT ENERGY     -2387.551353745618
Dispersion correction                    ... done

CARTESIAN COORDINATES (ANGSTROEM)
---------------------------------
  C      2.326710    2.135339   -0.709872
  C      2.938393    3.294382   -0.126140
  C      4.322226    3.411224    0.105216
  C      4.880975    4.608463    0.650846
  C      6.240862    4.687505    0.852158
  C      7.047427    3.591278    0.518185
  C      6.422020    2.440549   -0.006314
  C      7.227581    1.234546   -0.351432
  C      8.464352    1.344864   -1.001774
  C      9.140786    0.175867   -1.329676
  C      8.578972   -1.050155   -0.993700
  C      7.345491   -1.062917   -0.326750
  C      6.674482   -2.334754    0.063255
  C      7.394845   -3.523713    0.255581
  C      6.691422   -4.675635    0.594233
  C      5.312342   -4.610280    0.738100
  C      4.673236   -3.371169    0.553793
  C      3.229735   -3.242377    0.733589
  C      2.585749   -2.060277    0.778401
  C      1.143992   -1.896147    0.942339
  C      0.618588   -0.685335    1.412649
  C     -0.749186   -0.493469    1.556894
  C     -1.644336   -1.514674    1.210894
  N     -3.042217   -1.334219    1.278261
  C     -3.912208   -1.732396    0.265511
  C     -3.615616   -2.191671   -1.015768
  C     -4.669456   -2.507929   -1.862052
  C     -6.000717   -2.368064   -1.447856
  C     -6.298017   -1.885939   -0.177490
  C     -5.247500   -1.555456    0.687278
  C     -5.180475   -1.012161    2.022796
  C     -6.156666   -0.632821    2.943910
  C     -5.758465   -0.142985    4.182589
  C     -4.396260   -0.045396    4.506278
  C     -3.403024   -0.418897    3.604358
  C     -3.804596   -0.887576    2.352836
  C     -1.132103   -2.739473    0.762136
  C      0.234380   -2.921434    0.625104
  N      5.357046   -2.276221    0.217467
  N      6.698564    0.060827   -0.024575
  N      5.122226    2.354792   -0.204018
  C      0.955372    1.977325   -0.926100
  C      0.440504    0.786496   -1.540208
  C     -0.904184    0.576625   -1.710817
  C     -1.847412    1.539831   -1.262750
  N     -3.227816    1.320886   -1.343813
  C     -4.124420    1.665064   -0.328747
  C     -3.862815    2.127696    0.959799
  C     -4.939461    2.386931    1.796929
  C     -6.257218    2.179759    1.371018
  C     -6.518408    1.682229    0.098493
  C     -5.445531    1.414108   -0.757104
  C     -5.343591    0.869652   -2.090342
  C     -6.295794    0.433430   -3.008269
  C     -5.870329   -0.030691   -4.248922
  C     -4.506304   -0.039141   -4.576590
  C     -3.536577    0.394701   -3.675185
  C     -3.963836    0.826757   -2.419273
  C     -1.365628    2.747284   -0.709050
  C     -0.020075    2.967337   -0.550574
  H      3.005235    1.327886   -0.995800
  H      2.323646    4.151929    0.151787
  H      4.222229    5.444237    0.894974
  H      6.689734    5.590209    1.271905
  H      8.123990    3.610272    0.690339
  H      8.867848    2.323073   -1.267926
  H     10.096145    0.218851   -1.856828
  H      9.079338   -1.980170   -1.265817
  H      8.480868   -3.544753    0.161484
  H      7.220500   -5.618040    0.750456
  H      4.730705   -5.495520    1.002020
  H      2.683178   -4.179787    0.870956
  H      3.190083   -1.148432    0.699423
  H      1.304147    0.126744    1.663948
  H     -1.122805    0.465673    1.910524
  H     -2.586739   -2.285247   -1.336263
  H     -4.455945   -2.859010   -2.873445
  H     -6.801175   -2.621368   -2.146262
  H     -7.333425   -1.750738    0.140545
  H     -7.214238   -0.719411    2.680495
  H     -6.507888    0.162754    4.914983
  H     -4.105981    0.327609    5.490580
  H     -2.348622   -0.354564    3.874426
  H     -1.821574   -3.548869    0.519399
  H      0.605274   -3.874482    0.245592
  H      1.152953    0.022374   -1.857537
  H     -1.251231   -0.355151   -2.155244
  H     -2.845760    2.263878    1.300811
  H     -4.752523    2.741043    2.812231
  H     -7.076080    2.388558    2.062246
  H     -7.542301    1.487898   -0.225955
  H     -7.355879    0.456958   -2.741599
  H     -6.601134   -0.382281   -4.979493
  H     -4.194968   -0.387381   -5.563399
  H     -2.482355    0.404614   -3.952258
  H     -2.083553    3.520825   -0.433298
  H      0.311725    3.918735   -0.136554

-----------------------------------------------------------------------------
         ABSORPTION SPECTRUM VIA TRANSITION ELECTRIC DIPOLE MOMENTS
-----------------------------------------------------------------------------
State   Energy    Wavelength  fosc         T2        TX        TY        TZ
        (cm-1)      (nm)                 (au**2)    (au)      (au)      (au)
-----------------------------------------------------------------------------
   1   22580.8    442.9   0.259883827   3.78892  -1.86697  -0.46422  -0.29638
   2   24149.5    414.1   0.455849602   6.21426   2.37409   0.61564   0.44605
   3   25539.6    391.5   0.138987538   1.79158  -1.32211   0.20849  -0.01210
   4   26059.1    383.7   0.000559780   0.00707  -0.08257  -0.00623   0.01466
   5   27299.3    366.3   0.586941364   7.07814   2.64848  -0.21096  -0.13854
   6   13606.8    734.9   spin forbidden (mult=3)
   7   20155.1    496.2   spin forbidden (mult=3)
   8   22619.3    442.1   spin forbidden (mult=3)
   9   24293.6    411.6   spin forbidden (mult=3)
  10   25485.6    392.4   spin forbidden (mult=3)

Dispersion correction           -0.161055478
FINAL SINGLE POINT ENERGY     -2387.556157143055
Dispersion correction                    ... done

DIPOLE MOMENT
-------------
                                X             Y             Z
Electronic contribution:      8.61705       0.33884      -0.30082
Nuclear contribution   :     -7.83487      -0.17390       0.32185
                        -----------------------------------------
Total Dipole Moment    :      0.78218       0.16494       0.02102
                        -----------------------------------------
Magnitude (a.u.)       :      0.79966
Magnitude (Debye)      :      2.03257

Rotational constants in cm-1:     0.002628     0.000783     0.000728
Rotational constants in MHz :    78.780671    23.468262    21.811581

                             ****ORCA TERMINATED NORMALLY****
TOTAL RUN TIME: 0 days 0 hours 56 minutes 49 seconds 71 msec
