                         Program Version 5.0.3 -  RELEASE  -
|  1> ! PBE0 def2-SVP D3BJ def2/J RIJCOSX tightSCF noautostart miniprint nopop defgrid3 Opt
|  2> %maxcore    4000
|  3> %pal    nprocs  40  end
|  4> %geom	Convergence	loose
|  5> 	MaxIter	5
|  6> end
|  7> %tddft  PrintLevel  3
|  8> 	IRootMult	Triplet
|  9> 	NRoots	5
| 10> 	IRoot	2
| 11> 	TDA	True
| 12>         MaxDim  10
| 13> end
| 14> * xyzfile 0 1 T1_XTB_OPT_XYZ.xyz
| 15>
| 16>
| 17>                          ****END OF INPUT****

ORBITAL ENERGIES
----------------

  NO   OCC          E(Eh)            E(eV)
   0   2.0000     -14.447132      -393.1264
   1   2.0000     -14.442340      -392.9960
   2   2.0000     -14.379487      -391.2857
   3   2.0000     -14.377724      -391.2378
   4   2.0000     -14.377249      -391.2248
   5   2.0000     -10.289617      -279.9947
   6   2.0000     -10.283350      -279.8242
   7   2.0000     -10.274582      -279.5856
   8   2.0000     -10.274562      -279.5850
   9   2.0000     -10.274203      -279.5753
  10   2.0000     -10.273664      -279.5606
  11   2.0000     -10.273191      -279.5477
  12   2.0000     -10.271668      -279.5063
  13   2.0000     -10.269389      -279.4443
  14   2.0000     -10.268088      -279.4089
  15   2.0000     -10.266940      -279.3776
  16   2.0000     -10.265887      -279.3490
  17   2.0000     -10.256711      -279.0993
  18   2.0000     -10.254817      -279.0477
  19   2.0000     -10.252708      -278.9904
  20   2.0000     -10.248898      -278.8867
  21   2.0000     -10.247950      -278.8609
  22   2.0000     -10.247005      -278.8352
  23   2.0000     -10.246701      -278.8269
  24   2.0000     -10.245325      -278.7895
  25   2.0000     -10.245309      -278.7890
  26   2.0000     -10.244713      -278.7728
  27   2.0000     -10.244464      -278.7660
  28   2.0000     -10.244012      -278.7537
  29   2.0000     -10.243724      -278.7459
  30   2.0000     -10.243168      -278.7308
  31   2.0000     -10.242731      -278.7189
  32   2.0000     -10.242714      -278.7184
  33   2.0000     -10.242104      -278.7018
  34   2.0000     -10.241569      -278.6873
  35   2.0000     -10.240992      -278.6716
  36   2.0000     -10.239891      -278.6416
  37   2.0000     -10.237828      -278.5855
  38   2.0000     -10.236053      -278.5372
  39   2.0000     -10.232608      -278.4434
  40   2.0000     -10.231526      -278.4140
  41   2.0000     -10.231491      -278.4130
  42   2.0000     -10.231429      -278.4113
  43   2.0000     -10.230427      -278.3841
  44   2.0000     -10.230393      -278.3831
  45   2.0000     -10.230064      -278.3742
  46   2.0000     -10.230010      -278.3727
  47   2.0000     -10.229808      -278.3672
  48   2.0000     -10.229754      -278.3657
  49   2.0000     -10.229458      -278.3577
  50   2.0000     -10.228840      -278.3409
  51   2.0000     -10.228539      -278.3327
  52   2.0000     -10.227993      -278.3178
  53   2.0000     -10.227671      -278.3091
  54   2.0000     -10.227135      -278.2945
  55   2.0000     -10.225996      -278.2635
  56   2.0000     -10.224192      -278.2144
  57   2.0000     -10.223489      -278.1953
  58   2.0000     -10.222231      -278.1611
  59   2.0000     -10.221682      -278.1461
  60   2.0000      -1.026528       -27.9332
  61   2.0000      -1.021726       -27.8026
  62   2.0000      -0.987498       -26.8712
  63   2.0000      -0.971445       -26.4344
  64   2.0000      -0.956137       -26.0178
  65   2.0000      -0.900079       -24.4924
  66   2.0000      -0.895575       -24.3698
  67   2.0000      -0.870934       -23.6993
  68   2.0000      -0.869539       -23.6614
  69   2.0000      -0.865677       -23.5563
  70   2.0000      -0.864976       -23.5372
  71   2.0000      -0.840773       -22.8786
  72   2.0000      -0.832106       -22.6428
  73   2.0000      -0.830629       -22.6026
  74   2.0000      -0.824933       -22.4476
  75   2.0000      -0.819445       -22.2982
  76   2.0000      -0.815984       -22.2040
  77   2.0000      -0.808669       -22.0050
  78   2.0000      -0.794072       -21.6078
  79   2.0000      -0.785801       -21.3827
  80   2.0000      -0.782310       -21.2877
  81   2.0000      -0.777745       -21.1635
  82   2.0000      -0.771329       -20.9889
  83   2.0000      -0.766352       -20.8535
  84   2.0000      -0.764186       -20.7945
  85   2.0000      -0.757268       -20.6063
  86   2.0000      -0.748505       -20.3679
  87   2.0000      -0.732577       -19.9344
  88   2.0000      -0.730062       -19.8660
  89   2.0000      -0.727363       -19.7926
  90   2.0000      -0.720261       -19.5993
  91   2.0000      -0.688210       -18.7271
  92   2.0000      -0.680395       -18.5145
  93   2.0000      -0.677779       -18.4433
  94   2.0000      -0.670711       -18.2510
  95   2.0000      -0.651060       -17.7162
  96   2.0000      -0.649854       -17.6834
  97   2.0000      -0.645159       -17.5557
  98   2.0000      -0.642739       -17.4898
  99   2.0000      -0.631540       -17.1851
 100   2.0000      -0.629665       -17.1341
 101   2.0000      -0.623171       -16.9574
 102   2.0000      -0.617848       -16.8125
 103   2.0000      -0.616352       -16.7718
 104   2.0000      -0.612103       -16.6562
 105   2.0000      -0.599000       -16.2996
 106   2.0000      -0.594832       -16.1862
 107   2.0000      -0.588139       -16.0041
 108   2.0000      -0.586576       -15.9615
 109   2.0000      -0.581486       -15.8230
 110   2.0000      -0.576616       -15.6905
 111   2.0000      -0.558230       -15.1902
 112   2.0000      -0.555840       -15.1252
 113   2.0000      -0.554696       -15.0940
 114   2.0000      -0.536935       -14.6108
 115   2.0000      -0.534069       -14.5327
 116   2.0000      -0.531618       -14.4661
 117   2.0000      -0.527363       -14.3503
 118   2.0000      -0.525171       -14.2906
 119   2.0000      -0.518380       -14.1058
 120   2.0000      -0.517258       -14.0753
 121   2.0000      -0.512009       -13.9325
 122   2.0000      -0.505526       -13.7561
 123   2.0000      -0.504699       -13.7335
 124   2.0000      -0.496538       -13.5115
 125   2.0000      -0.491954       -13.3868
 126   2.0000      -0.482423       -13.1274
 127   2.0000      -0.480519       -13.0756
 128   2.0000      -0.477332       -12.9889
 129   2.0000      -0.473865       -12.8945
 130   2.0000      -0.471332       -12.8256
 131   2.0000      -0.469757       -12.7827
 132   2.0000      -0.465460       -12.6658
 133   2.0000      -0.463339       -12.6081
 134   2.0000      -0.461067       -12.5463
 135   2.0000      -0.458131       -12.4664
 136   2.0000      -0.452212       -12.3053
 137   2.0000      -0.449545       -12.2327
 138   2.0000      -0.447544       -12.1783
 139   2.0000      -0.446343       -12.1456
 140   2.0000      -0.445024       -12.1097
 141   2.0000      -0.444094       -12.0844
 142   2.0000      -0.443364       -12.0646
 143   2.0000      -0.441159       -12.0045
 144   2.0000      -0.438578       -11.9343
 145   2.0000      -0.436664       -11.8822
 146   2.0000      -0.436027       -11.8649
 147   2.0000      -0.429673       -11.6920
 148   2.0000      -0.428610       -11.6631
 149   2.0000      -0.428498       -11.6600
 150   2.0000      -0.426630       -11.6092
 151   2.0000      -0.422959       -11.5093
 152   2.0000      -0.418071       -11.3763
 153   2.0000      -0.416664       -11.3380
 154   2.0000      -0.411230       -11.1901
 155   2.0000      -0.410374       -11.1668
 156   2.0000      -0.402348       -10.9484
 157   2.0000      -0.400700       -10.9036
 158   2.0000      -0.399119       -10.8606
 159   2.0000      -0.396710       -10.7950
 160   2.0000      -0.390702       -10.6316
 161   2.0000      -0.387618       -10.5476
 162   2.0000      -0.382687       -10.4134
 163   2.0000      -0.380768       -10.3612
 164   2.0000      -0.375902       -10.2288
 165   2.0000      -0.375148       -10.2083
 166   2.0000      -0.373514       -10.1638
 167   2.0000      -0.372701       -10.1417
 168   2.0000      -0.368217       -10.0197
 169   2.0000      -0.365639        -9.9495
 170   2.0000      -0.358981        -9.7684
 171   2.0000      -0.358082        -9.7439
 172   2.0000      -0.354469        -9.6456
 173   2.0000      -0.348020        -9.4701
 174   2.0000      -0.347504        -9.4561
 175   2.0000      -0.345880        -9.4119
 176   2.0000      -0.344081        -9.3629
 177   2.0000      -0.338133        -9.2011
 178   2.0000      -0.335162        -9.1202
 179   2.0000      -0.323336        -8.7984
 180   2.0000      -0.315378        -8.5819
 181   2.0000      -0.311922        -8.4878
 182   2.0000      -0.299663        -8.1542
 183   2.0000      -0.296909        -8.0793
 184   2.0000      -0.295908        -8.0521
 185   2.0000      -0.289733        -7.8840
 186   2.0000      -0.289122        -7.8674
 187   2.0000      -0.278691        -7.5836
 188   2.0000      -0.274057        -7.4575
 189   2.0000      -0.267564        -7.2808
 190   2.0000      -0.265509        -7.2249
 191   2.0000      -0.260673        -7.0933
 192   2.0000      -0.259743        -7.0680
 193   2.0000      -0.255557        -6.9541
 194   2.0000      -0.254853        -6.9349
 195   2.0000      -0.234554        -6.3825
 196   2.0000      -0.228849        -6.2273
 197   2.0000      -0.225928        -6.1478
 198   2.0000      -0.216308        -5.8860
 199   2.0000      -0.206786        -5.6269
 200   2.0000      -0.195979        -5.3329
 201   0.0000      -0.077655        -2.1131
 202   0.0000      -0.061709        -1.6792
 203   0.0000      -0.049114        -1.3365
 204   0.0000      -0.039561        -1.0765
 205   0.0000      -0.027892        -0.7590

Total SCF time: 0 days 0 hours 3 min 34 sec

Dispersion correction           -0.164117360
FINAL SINGLE POINT ENERGY     -2387.521595218611
Dispersion correction                    ... done
Dispersion correction           -0.165281816
FINAL SINGLE POINT ENERGY     -2387.476998195831
Dispersion correction                    ... done
Dispersion correction           -0.162435101
FINAL SINGLE POINT ENERGY     -2387.504760913905
Dispersion correction                    ... done
Dispersion correction           -0.157035751
FINAL SINGLE POINT ENERGY     -2387.541660551258
Dispersion correction                    ... done

CARTESIAN COORDINATES (ANGSTROEM)
---------------------------------
  C      2.360292    2.305448   -0.581369
  C      2.991367    3.415417   -0.117293
  C      4.418554    3.497014    0.066959
  C      5.017485    4.685388    0.539497
  C      6.389735    4.729775    0.711118
  C      7.150518    3.603049    0.409038
  C      6.479837    2.460407   -0.055743
  C      7.239052    1.218895   -0.383590
  C      8.463806    1.287938   -1.061520
  C      9.113555    0.100077   -1.369292
  C      8.537093   -1.104814   -0.990007
  C      7.313756   -1.080440   -0.305255
  C      6.637443   -2.341015    0.113223
  C      7.373595   -3.523506    0.334472
  C      6.681619   -4.687490    0.688928
  C      5.308933   -4.643281    0.813348
  C      4.643052   -3.404250    0.599914
  C      3.233523   -3.297954    0.736285
  C      2.546414   -2.063564    0.725214
  C      1.141934   -1.925641    0.816454
  C      0.559347   -0.677221    1.172382
  C     -0.803263   -0.509866    1.237166
  C     -1.671736   -1.581209    0.922008
  N     -3.065741   -1.403747    0.912650
  C     -3.899067   -1.869416   -0.106381
  C     -3.556368   -2.414589   -1.341293
  C     -4.579679   -2.777427   -2.206781
  C     -5.924270   -2.587842   -1.861853
  C     -6.266248   -2.018041   -0.640449
  C     -5.248137   -1.645910    0.243003
  C     -5.229762   -1.006968    1.536966
  C     -6.237222   -0.544797    2.379541
  C     -5.885600    0.025357    3.598288
  C     -4.539000    0.123400    3.977725
  C     -3.514201   -0.327474    3.149956
  C     -3.869594   -0.877255    1.918692
  C     -1.117627   -2.837036    0.591262
  C      0.248580   -3.008559    0.542836
  N      5.325048   -2.289190    0.254331
  N      6.691227    0.063673   -0.019028
  N      5.166570    2.416390   -0.215206
  C      0.940822    2.137018   -0.748164
  C      0.432828    0.912762   -1.224758
  C     -0.923932    0.667419   -1.330206
  C     -1.854511    1.648537   -0.951283
  N     -3.236031    1.392644   -0.971685
  C     -4.119022    1.775614    0.043928
  C     -3.846783    2.330611    1.293197
  C     -4.911950    2.601024    2.141568
  C     -6.229782    2.305595    1.771216
  C     -6.500371    1.714221    0.543393
  C     -5.439125    1.437400   -0.324965
  C     -5.349117    0.803939   -1.617263
  C     -6.304226    0.252458   -2.466953
  C     -5.895451   -0.277222   -3.685564
  C     -4.544395   -0.241260   -4.058996
  C     -3.570906    0.298970   -3.222525
  C     -3.980169    0.799861   -1.986903
  C     -1.369648    2.900612   -0.532015
  C     -0.012303    3.137752   -0.435647
  H      3.012985    1.462891   -0.824855
  H      2.415718    4.305227    0.142553
  H      4.390805    5.550369    0.762369
  H      6.874428    5.634435    1.082768
  H      8.230320    3.594905    0.555904
  H      8.880268    2.250470   -1.359952
  H     10.059833    0.111902   -1.912832
  H      9.015774   -2.049703   -1.246359
  H      8.459789   -3.530371    0.252326
  H      7.223929   -5.617931    0.864509
  H      4.738431   -5.534244    1.079251
  H      2.693732   -4.235495    0.886074
  H      3.146362   -1.151367    0.652933
  H      1.215689    0.166491    1.390396
  H     -1.211782    0.468098    1.489438
  H     -2.515291   -2.528093   -1.616885
  H     -4.330594   -3.194949   -3.183008
  H     -6.700150   -2.865199   -2.579132
  H     -7.310506   -1.841411   -0.379662
  H     -7.280482   -0.627759    2.070700
  H     -6.660658    0.396324    4.270330
  H     -4.286415    0.561591    4.944551
  H     -2.472013   -0.260114    3.461350
  H     -1.783484   -3.673862    0.382520
  H      0.650411   -3.982626    0.265066
  H      1.144452    0.127306   -1.485774
  H     -1.271353   -0.313786   -1.654572
  H     -2.826369    2.521059    1.598341
  H     -4.714359    3.027558    3.125619
  H     -7.038625    2.516315    2.474078
  H     -7.521225    1.449591    0.264638
  H     -7.351414    0.234780   -2.161881
  H     -6.628641   -0.718705   -4.361887
  H     -4.246177   -0.645141   -5.027735
  H     -2.527372    0.335775   -3.533558
  H     -2.082578    3.693069   -0.306917
  H      0.327265    4.122208   -0.116096

-----------------------------------------------------------------------------
         ABSORPTION SPECTRUM VIA TRANSITION ELECTRIC DIPOLE MOMENTS
-----------------------------------------------------------------------------
State   Energy    Wavelength  fosc         T2        TX        TY        TZ
        (cm-1)      (nm)                 (au**2)    (au)      (au)      (au)
-----------------------------------------------------------------------------
   1   20367.4    491.0   0.058178475   0.94038   0.70553  -0.66220  -0.06395
   2   22128.7    451.9   0.322846445   4.80302   2.18754   0.11340   0.06966
   3   24379.4    410.2   0.047499999   0.64143   0.80071  -0.01012   0.01378
   4   24517.9    407.9   0.002499619   0.03356   0.09082  -0.15571   0.03268
   5   25707.3    389.0   0.008681783   0.11118  -0.29351  -0.15080  -0.04785
   6   15340.7    651.9   spin forbidden (mult=3)
   7   17665.6    566.1   spin forbidden (mult=3)
   8   21002.4    476.1   spin forbidden (mult=3)
   9   21288.7    469.7   spin forbidden (mult=3)
  10   22273.6    449.0   spin forbidden (mult=3)

Dispersion correction           -0.168269312
FINAL SINGLE POINT ENERGY     -2387.511687145483
Dispersion correction                    ... done

DIPOLE MOMENT
-------------
                                X             Y             Z
Electronic contribution:      8.27042      -0.27330      -0.20137
Nuclear contribution   :     -7.84422      -0.27680       0.24308
                        -----------------------------------------
Total Dipole Moment    :      0.42619      -0.55010       0.04171
                        -----------------------------------------
Magnitude (a.u.)       :      0.69713
Magnitude (Debye)      :      1.77196

Rotational constants in cm-1:     0.002528     0.000787     0.000748
Rotational constants in MHz :    75.800124    23.591976    22.409612

                             ****ORCA TERMINATED NORMALLY****
TOTAL RUN TIME: 0 days 0 hours 54 minutes 7 seconds 520 msec
