                         Program Version 5.0.3 -  RELEASE  -
|  1> ! PBE0 def2-SVP D3BJ def2/J RIJCOSX tightSCF noautostart miniprint nopop defgrid3 Opt
|  2> %maxcore    4000
|  3> %pal    nprocs  40  end
|  4> %geom	Convergence	loose
|  5> 	MaxIter	5
|  6> end
|  7> %tddft  PrintLevel  3
|  8> 	IRootMult	Triplet
|  9> 	NRoots	5
| 10> 	IRoot	3
| 11> 	TDA	True
| 12>         MaxDim  10
| 13> end
| 14> * xyzfile 0 1 T1_XTB_OPT_XYZ.xyz
| 15>
| 16>
| 17>                          ****END OF INPUT****

ORBITAL ENERGIES
----------------

  NO   OCC          E(Eh)            E(eV)
   0   2.0000     -14.447132      -393.1264
   1   2.0000     -14.442340      -392.9960
   2   2.0000     -14.379487      -391.2857
   3   2.0000     -14.377724      -391.2378
   4   2.0000     -14.377249      -391.2248
   5   2.0000     -10.289617      -279.9947
   6   2.0000     -10.283350      -279.8242
   7   2.0000     -10.274582      -279.5856
   8   2.0000     -10.274562      -279.5850
   9   2.0000     -10.274203      -279.5753
  10   2.0000     -10.273664      -279.5606
  11   2.0000     -10.273191      -279.5477
  12   2.0000     -10.271668      -279.5063
  13   2.0000     -10.269389      -279.4443
  14   2.0000     -10.268088      -279.4089
  15   2.0000     -10.266940      -279.3776
  16   2.0000     -10.265887      -279.3490
  17   2.0000     -10.256711      -279.0993
  18   2.0000     -10.254817      -279.0477
  19   2.0000     -10.252708      -278.9904
  20   2.0000     -10.248898      -278.8867
  21   2.0000     -10.247950      -278.8609
  22   2.0000     -10.247005      -278.8352
  23   2.0000     -10.246701      -278.8269
  24   2.0000     -10.245325      -278.7895
  25   2.0000     -10.245309      -278.7890
  26   2.0000     -10.244713      -278.7728
  27   2.0000     -10.244464      -278.7660
  28   2.0000     -10.244012      -278.7537
  29   2.0000     -10.243724      -278.7459
  30   2.0000     -10.243168      -278.7308
  31   2.0000     -10.242731      -278.7189
  32   2.0000     -10.242714      -278.7184
  33   2.0000     -10.242104      -278.7018
  34   2.0000     -10.241569      -278.6873
  35   2.0000     -10.240992      -278.6716
  36   2.0000     -10.239891      -278.6416
  37   2.0000     -10.237828      -278.5855
  38   2.0000     -10.236053      -278.5372
  39   2.0000     -10.232608      -278.4434
  40   2.0000     -10.231526      -278.4140
  41   2.0000     -10.231491      -278.4130
  42   2.0000     -10.231429      -278.4113
  43   2.0000     -10.230427      -278.3841
  44   2.0000     -10.230393      -278.3831
  45   2.0000     -10.230064      -278.3742
  46   2.0000     -10.230010      -278.3727
  47   2.0000     -10.229808      -278.3672
  48   2.0000     -10.229754      -278.3657
  49   2.0000     -10.229458      -278.3577
  50   2.0000     -10.228840      -278.3409
  51   2.0000     -10.228539      -278.3327
  52   2.0000     -10.227993      -278.3178
  53   2.0000     -10.227671      -278.3091
  54   2.0000     -10.227135      -278.2945
  55   2.0000     -10.225996      -278.2635
  56   2.0000     -10.224192      -278.2144
  57   2.0000     -10.223489      -278.1953
  58   2.0000     -10.222231      -278.1611
  59   2.0000     -10.221682      -278.1461
  60   2.0000      -1.026528       -27.9332
  61   2.0000      -1.021726       -27.8026
  62   2.0000      -0.987498       -26.8712
  63   2.0000      -0.971445       -26.4344
  64   2.0000      -0.956137       -26.0178
  65   2.0000      -0.900079       -24.4924
  66   2.0000      -0.895575       -24.3698
  67   2.0000      -0.870934       -23.6993
  68   2.0000      -0.869539       -23.6614
  69   2.0000      -0.865677       -23.5563
  70   2.0000      -0.864976       -23.5372
  71   2.0000      -0.840773       -22.8786
  72   2.0000      -0.832106       -22.6428
  73   2.0000      -0.830629       -22.6026
  74   2.0000      -0.824933       -22.4476
  75   2.0000      -0.819445       -22.2982
  76   2.0000      -0.815984       -22.2040
  77   2.0000      -0.808669       -22.0050
  78   2.0000      -0.794072       -21.6078
  79   2.0000      -0.785801       -21.3827
  80   2.0000      -0.782310       -21.2877
  81   2.0000      -0.777745       -21.1635
  82   2.0000      -0.771329       -20.9889
  83   2.0000      -0.766352       -20.8535
  84   2.0000      -0.764186       -20.7945
  85   2.0000      -0.757268       -20.6063
  86   2.0000      -0.748505       -20.3679
  87   2.0000      -0.732577       -19.9344
  88   2.0000      -0.730062       -19.8660
  89   2.0000      -0.727363       -19.7926
  90   2.0000      -0.720261       -19.5993
  91   2.0000      -0.688210       -18.7271
  92   2.0000      -0.680395       -18.5145
  93   2.0000      -0.677779       -18.4433
  94   2.0000      -0.670711       -18.2510
  95   2.0000      -0.651060       -17.7162
  96   2.0000      -0.649854       -17.6834
  97   2.0000      -0.645159       -17.5557
  98   2.0000      -0.642739       -17.4898
  99   2.0000      -0.631540       -17.1851
 100   2.0000      -0.629665       -17.1341
 101   2.0000      -0.623171       -16.9574
 102   2.0000      -0.617848       -16.8125
 103   2.0000      -0.616352       -16.7718
 104   2.0000      -0.612103       -16.6562
 105   2.0000      -0.599000       -16.2996
 106   2.0000      -0.594832       -16.1862
 107   2.0000      -0.588139       -16.0041
 108   2.0000      -0.586576       -15.9615
 109   2.0000      -0.581486       -15.8230
 110   2.0000      -0.576616       -15.6905
 111   2.0000      -0.558230       -15.1902
 112   2.0000      -0.555840       -15.1252
 113   2.0000      -0.554696       -15.0940
 114   2.0000      -0.536935       -14.6108
 115   2.0000      -0.534069       -14.5327
 116   2.0000      -0.531618       -14.4661
 117   2.0000      -0.527363       -14.3503
 118   2.0000      -0.525171       -14.2906
 119   2.0000      -0.518380       -14.1058
 120   2.0000      -0.517258       -14.0753
 121   2.0000      -0.512009       -13.9325
 122   2.0000      -0.505526       -13.7561
 123   2.0000      -0.504699       -13.7335
 124   2.0000      -0.496538       -13.5115
 125   2.0000      -0.491954       -13.3868
 126   2.0000      -0.482423       -13.1274
 127   2.0000      -0.480519       -13.0756
 128   2.0000      -0.477332       -12.9889
 129   2.0000      -0.473865       -12.8945
 130   2.0000      -0.471332       -12.8256
 131   2.0000      -0.469757       -12.7827
 132   2.0000      -0.465460       -12.6658
 133   2.0000      -0.463339       -12.6081
 134   2.0000      -0.461067       -12.5463
 135   2.0000      -0.458131       -12.4664
 136   2.0000      -0.452212       -12.3053
 137   2.0000      -0.449545       -12.2327
 138   2.0000      -0.447544       -12.1783
 139   2.0000      -0.446343       -12.1456
 140   2.0000      -0.445024       -12.1097
 141   2.0000      -0.444094       -12.0844
 142   2.0000      -0.443364       -12.0646
 143   2.0000      -0.441159       -12.0045
 144   2.0000      -0.438578       -11.9343
 145   2.0000      -0.436664       -11.8822
 146   2.0000      -0.436027       -11.8649
 147   2.0000      -0.429673       -11.6920
 148   2.0000      -0.428610       -11.6631
 149   2.0000      -0.428498       -11.6600
 150   2.0000      -0.426630       -11.6092
 151   2.0000      -0.422959       -11.5093
 152   2.0000      -0.418071       -11.3763
 153   2.0000      -0.416664       -11.3380
 154   2.0000      -0.411230       -11.1901
 155   2.0000      -0.410374       -11.1668
 156   2.0000      -0.402348       -10.9484
 157   2.0000      -0.400700       -10.9036
 158   2.0000      -0.399119       -10.8606
 159   2.0000      -0.396710       -10.7950
 160   2.0000      -0.390702       -10.6316
 161   2.0000      -0.387618       -10.5476
 162   2.0000      -0.382687       -10.4134
 163   2.0000      -0.380768       -10.3612
 164   2.0000      -0.375902       -10.2288
 165   2.0000      -0.375148       -10.2083
 166   2.0000      -0.373514       -10.1638
 167   2.0000      -0.372701       -10.1417
 168   2.0000      -0.368217       -10.0197
 169   2.0000      -0.365639        -9.9495
 170   2.0000      -0.358981        -9.7684
 171   2.0000      -0.358082        -9.7439
 172   2.0000      -0.354469        -9.6456
 173   2.0000      -0.348020        -9.4701
 174   2.0000      -0.347504        -9.4561
 175   2.0000      -0.345880        -9.4119
 176   2.0000      -0.344081        -9.3629
 177   2.0000      -0.338133        -9.2011
 178   2.0000      -0.335162        -9.1202
 179   2.0000      -0.323336        -8.7984
 180   2.0000      -0.315378        -8.5819
 181   2.0000      -0.311922        -8.4878
 182   2.0000      -0.299663        -8.1542
 183   2.0000      -0.296909        -8.0793
 184   2.0000      -0.295908        -8.0521
 185   2.0000      -0.289733        -7.8840
 186   2.0000      -0.289122        -7.8674
 187   2.0000      -0.278691        -7.5836
 188   2.0000      -0.274057        -7.4575
 189   2.0000      -0.267564        -7.2808
 190   2.0000      -0.265509        -7.2249
 191   2.0000      -0.260673        -7.0933
 192   2.0000      -0.259743        -7.0680
 193   2.0000      -0.255557        -6.9541
 194   2.0000      -0.254853        -6.9349
 195   2.0000      -0.234554        -6.3825
 196   2.0000      -0.228849        -6.2273
 197   2.0000      -0.225928        -6.1478
 198   2.0000      -0.216308        -5.8860
 199   2.0000      -0.206786        -5.6269
 200   2.0000      -0.195979        -5.3329
 201   0.0000      -0.077655        -2.1131
 202   0.0000      -0.061709        -1.6792
 203   0.0000      -0.049114        -1.3365
 204   0.0000      -0.039561        -1.0765
 205   0.0000      -0.027892        -0.7590

Total SCF time: 0 days 0 hours 3 min 56 sec

Dispersion correction           -0.164117360
FINAL SINGLE POINT ENERGY     -2387.509745947959
Dispersion correction                    ... done
Dispersion correction           -0.174326387
FINAL SINGLE POINT ENERGY     -2387.041629116378
Dispersion correction                    ... done
Dispersion correction           -0.162111518
FINAL SINGLE POINT ENERGY     -2387.522328114311
Dispersion correction                    ... done
Dispersion correction           -0.160263746
FINAL SINGLE POINT ENERGY     -2387.520122435708
Dispersion correction                    ... done

CARTESIAN COORDINATES (ANGSTROEM)
---------------------------------
  C      2.240195    2.186019   -0.559081
  C      2.870486    3.298024   -0.008437
  C      4.263295    3.385300    0.216217
  C      4.841376    4.567664    0.765921
  C      6.197534    4.632928    0.967200
  C      6.997710    3.533399    0.624690
  C      6.353490    2.403043    0.100028
  C      7.156987    1.205313   -0.274051
  C      8.403631    1.347043   -0.899179
  C      9.117048    0.204610   -1.228863
  C      8.583639   -1.039262   -0.918159
  C      7.338868   -1.084721   -0.282123
  C      6.697051   -2.374477    0.086226
  C      7.440784   -3.541784    0.322922
  C      6.762769   -4.707367    0.657460
  C      5.378246   -4.681822    0.752965
  C      4.719048   -3.466776    0.513378
  C      3.271159   -3.353855    0.627534
  C      2.641975   -2.165851    0.566919
  C      1.204717   -1.966033    0.663530
  C      0.695250   -0.700522    0.997942
  C     -0.668591   -0.475239    1.091192
  C     -1.562706   -1.519971    0.840116
  N     -2.951464   -1.333889    0.962212
  C     -3.910779   -1.749529    0.052166
  C     -3.752925   -2.269476   -1.235569
  C     -4.899442   -2.602977   -1.939107
  C     -6.172453   -2.419682   -1.387380
  C     -6.329226   -1.881009   -0.116038
  C     -5.196762   -1.533201    0.605945
  C     -4.990566   -0.948978    1.910905
  C     -5.848724   -0.549747    2.922267
  C     -5.305167   -0.051661    4.105175
  C     -3.921717    0.032436    4.279501
  C     -3.042628   -0.364843    3.279483
  C     -3.591735   -0.836464    2.088193
  C     -1.073615   -2.783191    0.485954
  C      0.286680   -2.998066    0.400872
  N      5.378214   -2.358083    0.186385
  N      6.653325    0.013139    0.020962
  N      5.052772    2.325326   -0.096128
  C      0.847585    2.027246   -0.766288
  C      0.325838    0.821101   -1.311297
  C     -1.026423    0.589324   -1.425354
  C     -1.952195    1.577290   -1.056361
  N     -3.348175    1.361904   -1.153692
  C     -4.267618    1.666731   -0.177071
  C     -4.059509    2.128505    1.127487
  C     -5.173159    2.404431    1.900211
  C     -6.473264    2.203611    1.412960
  C     -6.682693    1.698899    0.135603
  C     -5.579353    1.421958   -0.667236
  C     -5.418273    0.894767   -1.999925
  C     -6.307895    0.447096   -2.970866
  C     -5.807182    0.009752   -4.193636
  C     -4.433756    0.040164   -4.451692
  C     -3.524857    0.484064   -3.498772
  C     -4.024871    0.888453   -2.261273
  C     -1.466654    2.808940   -0.590066
  C     -0.118106    3.024365   -0.433883
  H      2.893944    1.370184   -0.847737
  H      2.284211    4.166921    0.281780
  H      4.196519    5.405961    1.016997
  H      6.650146    5.526480    1.391281
  H      8.069357    3.540427    0.791146
  H      8.786004    2.335051   -1.137790
  H     10.076689    0.279908   -1.734814
  H      9.111442   -1.949094   -1.186763
  H      8.524968   -3.530214    0.271656
  H      7.312457   -5.625113    0.853058
  H      4.814898   -5.573453    1.014648
  H      2.720803   -4.279321    0.791025
  H      3.265938   -1.283795    0.458665
  H      1.385782    0.123871    1.155021
  H     -1.045931    0.521193    1.301196
  H     -2.770224   -2.407207   -1.676085
  H     -4.806557   -3.001511   -2.945030
  H     -7.048701   -2.687053   -1.969888
  H     -7.319140   -1.719019    0.301443
  H     -6.924893   -0.630526    2.795106
  H     -5.964607    0.266300    4.908103
  H     -3.522034    0.406148    5.218199
  H     -1.968924   -0.324039    3.430932
  H     -1.770362   -3.599654    0.317879
  H      0.648751   -3.983315    0.123020
  H      1.027574    0.044008   -1.604974
  H     -1.380114   -0.368744   -1.786960
  H     -3.057297    2.276075    1.516113
  H     -5.035223    2.775831    2.911614
  H     -7.322726    2.436740    2.050594
  H     -7.689691    1.525704   -0.235161
  H     -7.376934    0.437243   -2.776365
  H     -6.489022   -0.345752   -4.961351
  H     -4.065844   -0.281706   -5.422467
  H     -2.462375    0.524332   -3.715609
  H     -2.171682    3.605597   -0.364494
  H      0.217065    3.988463   -0.065805

-----------------------------------------------------------------------------
         ABSORPTION SPECTRUM VIA TRANSITION ELECTRIC DIPOLE MOMENTS
-----------------------------------------------------------------------------
State   Energy    Wavelength  fosc         T2        TX        TY        TZ
        (cm-1)      (nm)                 (au**2)    (au)      (au)      (au)
-----------------------------------------------------------------------------
   1   21494.9    465.2   0.092924309   1.42321  -1.13598  -0.29807  -0.20955
   2   24635.6    405.9   0.166422543   2.22395  -1.33720  -0.58707  -0.30199
   3   25461.1    392.8   0.604124860   7.81134  -2.78514   0.22140  -0.07282
   4   26275.6    380.6   0.001325257   0.01660  -0.11411  -0.05959  -0.00575
   5   27876.0    358.7   0.082226564   0.97108  -0.96184   0.13076   0.16985
   6   15780.9    633.7   spin forbidden (mult=3)
   7   19775.0    505.7   spin forbidden (mult=3)
   8   21634.8    462.2   spin forbidden (mult=3)
   9   24706.6    404.7   spin forbidden (mult=3)
  10   25435.3    393.2   spin forbidden (mult=3)

Dispersion correction           -0.164781533
FINAL SINGLE POINT ENERGY     -2387.516145938467
Dispersion correction                    ... done

DIPOLE MOMENT
-------------
                                X             Y             Z
Electronic contribution:      5.00303      -2.92791       0.62265
Nuclear contribution   :     -7.80661       0.00066       0.50807
                        -----------------------------------------
Total Dipole Moment    :     -2.80358      -2.92725       1.13072
                        -----------------------------------------
Magnitude (a.u.)       :      4.20801
Magnitude (Debye)      :     10.69592

Rotational constants in cm-1:     0.002734     0.000790     0.000724
Rotational constants in MHz :    81.968389    23.669124    21.694912

                             ****ORCA TERMINATED NORMALLY****
TOTAL RUN TIME: 0 days 1 hours 5 minutes 29 seconds 487 msec
