                         Program Version 5.0.3 -  RELEASE  -
|  1> ! PBE0 def2-SVP D3BJ def2/J RIJCOSX tightSCF noautostart miniprint nopop defgrid3 Opt
|  2> %maxcore    4000
|  3> %pal    nprocs  40  end
|  4> %geom	Convergence	loose
|  5> 	MaxIter	5
|  6> end
|  7> %tddft  PrintLevel  3
|  8> 	IRootMult	Triplet
|  9> 	NRoots	5
| 10> 	IRoot	4
| 11> 	TDA	True
| 12>         MaxDim  10
| 13> end
| 14> * xyzfile 0 1 T1_XTB_OPT_XYZ.xyz
| 15>
| 16>
| 17>                          ****END OF INPUT****

ORBITAL ENERGIES
----------------

  NO   OCC          E(Eh)            E(eV)
   0   2.0000     -14.447132      -393.1264
   1   2.0000     -14.442340      -392.9960
   2   2.0000     -14.379487      -391.2857
   3   2.0000     -14.377724      -391.2378
   4   2.0000     -14.377249      -391.2248
   5   2.0000     -10.289617      -279.9947
   6   2.0000     -10.283350      -279.8242
   7   2.0000     -10.274582      -279.5856
   8   2.0000     -10.274562      -279.5850
   9   2.0000     -10.274203      -279.5753
  10   2.0000     -10.273664      -279.5606
  11   2.0000     -10.273191      -279.5477
  12   2.0000     -10.271668      -279.5063
  13   2.0000     -10.269389      -279.4443
  14   2.0000     -10.268088      -279.4089
  15   2.0000     -10.266940      -279.3776
  16   2.0000     -10.265887      -279.3490
  17   2.0000     -10.256711      -279.0993
  18   2.0000     -10.254817      -279.0477
  19   2.0000     -10.252708      -278.9904
  20   2.0000     -10.248898      -278.8867
  21   2.0000     -10.247950      -278.8609
  22   2.0000     -10.247005      -278.8352
  23   2.0000     -10.246701      -278.8269
  24   2.0000     -10.245325      -278.7895
  25   2.0000     -10.245309      -278.7890
  26   2.0000     -10.244713      -278.7728
  27   2.0000     -10.244464      -278.7660
  28   2.0000     -10.244012      -278.7537
  29   2.0000     -10.243724      -278.7459
  30   2.0000     -10.243168      -278.7308
  31   2.0000     -10.242731      -278.7189
  32   2.0000     -10.242714      -278.7184
  33   2.0000     -10.242104      -278.7018
  34   2.0000     -10.241569      -278.6873
  35   2.0000     -10.240992      -278.6716
  36   2.0000     -10.239891      -278.6416
  37   2.0000     -10.237828      -278.5855
  38   2.0000     -10.236053      -278.5372
  39   2.0000     -10.232608      -278.4434
  40   2.0000     -10.231526      -278.4140
  41   2.0000     -10.231491      -278.4130
  42   2.0000     -10.231429      -278.4113
  43   2.0000     -10.230427      -278.3841
  44   2.0000     -10.230393      -278.3831
  45   2.0000     -10.230064      -278.3742
  46   2.0000     -10.230010      -278.3727
  47   2.0000     -10.229808      -278.3672
  48   2.0000     -10.229754      -278.3657
  49   2.0000     -10.229458      -278.3577
  50   2.0000     -10.228840      -278.3409
  51   2.0000     -10.228539      -278.3327
  52   2.0000     -10.227993      -278.3178
  53   2.0000     -10.227671      -278.3091
  54   2.0000     -10.227135      -278.2945
  55   2.0000     -10.225996      -278.2635
  56   2.0000     -10.224192      -278.2144
  57   2.0000     -10.223489      -278.1953
  58   2.0000     -10.222231      -278.1611
  59   2.0000     -10.221682      -278.1461
  60   2.0000      -1.026528       -27.9332
  61   2.0000      -1.021726       -27.8026
  62   2.0000      -0.987498       -26.8712
  63   2.0000      -0.971445       -26.4344
  64   2.0000      -0.956137       -26.0178
  65   2.0000      -0.900079       -24.4924
  66   2.0000      -0.895575       -24.3698
  67   2.0000      -0.870934       -23.6993
  68   2.0000      -0.869539       -23.6614
  69   2.0000      -0.865677       -23.5563
  70   2.0000      -0.864976       -23.5372
  71   2.0000      -0.840773       -22.8786
  72   2.0000      -0.832106       -22.6428
  73   2.0000      -0.830629       -22.6026
  74   2.0000      -0.824933       -22.4476
  75   2.0000      -0.819445       -22.2982
  76   2.0000      -0.815984       -22.2040
  77   2.0000      -0.808669       -22.0050
  78   2.0000      -0.794072       -21.6078
  79   2.0000      -0.785801       -21.3827
  80   2.0000      -0.782310       -21.2877
  81   2.0000      -0.777745       -21.1635
  82   2.0000      -0.771329       -20.9889
  83   2.0000      -0.766352       -20.8535
  84   2.0000      -0.764186       -20.7945
  85   2.0000      -0.757268       -20.6063
  86   2.0000      -0.748505       -20.3679
  87   2.0000      -0.732577       -19.9344
  88   2.0000      -0.730062       -19.8660
  89   2.0000      -0.727363       -19.7926
  90   2.0000      -0.720261       -19.5993
  91   2.0000      -0.688210       -18.7271
  92   2.0000      -0.680395       -18.5145
  93   2.0000      -0.677779       -18.4433
  94   2.0000      -0.670711       -18.2510
  95   2.0000      -0.651060       -17.7162
  96   2.0000      -0.649854       -17.6834
  97   2.0000      -0.645159       -17.5557
  98   2.0000      -0.642739       -17.4898
  99   2.0000      -0.631540       -17.1851
 100   2.0000      -0.629665       -17.1341
 101   2.0000      -0.623171       -16.9574
 102   2.0000      -0.617848       -16.8125
 103   2.0000      -0.616352       -16.7718
 104   2.0000      -0.612103       -16.6562
 105   2.0000      -0.599000       -16.2996
 106   2.0000      -0.594832       -16.1862
 107   2.0000      -0.588139       -16.0041
 108   2.0000      -0.586576       -15.9615
 109   2.0000      -0.581486       -15.8230
 110   2.0000      -0.576616       -15.6905
 111   2.0000      -0.558230       -15.1902
 112   2.0000      -0.555840       -15.1252
 113   2.0000      -0.554696       -15.0940
 114   2.0000      -0.536935       -14.6108
 115   2.0000      -0.534069       -14.5327
 116   2.0000      -0.531618       -14.4661
 117   2.0000      -0.527363       -14.3503
 118   2.0000      -0.525171       -14.2906
 119   2.0000      -0.518380       -14.1058
 120   2.0000      -0.517258       -14.0753
 121   2.0000      -0.512009       -13.9325
 122   2.0000      -0.505526       -13.7561
 123   2.0000      -0.504699       -13.7335
 124   2.0000      -0.496538       -13.5115
 125   2.0000      -0.491954       -13.3868
 126   2.0000      -0.482423       -13.1274
 127   2.0000      -0.480519       -13.0756
 128   2.0000      -0.477332       -12.9889
 129   2.0000      -0.473865       -12.8945
 130   2.0000      -0.471332       -12.8256
 131   2.0000      -0.469757       -12.7827
 132   2.0000      -0.465460       -12.6658
 133   2.0000      -0.463339       -12.6081
 134   2.0000      -0.461067       -12.5463
 135   2.0000      -0.458131       -12.4664
 136   2.0000      -0.452212       -12.3053
 137   2.0000      -0.449545       -12.2327
 138   2.0000      -0.447544       -12.1783
 139   2.0000      -0.446343       -12.1456
 140   2.0000      -0.445024       -12.1097
 141   2.0000      -0.444094       -12.0844
 142   2.0000      -0.443364       -12.0646
 143   2.0000      -0.441159       -12.0045
 144   2.0000      -0.438578       -11.9343
 145   2.0000      -0.436664       -11.8822
 146   2.0000      -0.436027       -11.8649
 147   2.0000      -0.429673       -11.6920
 148   2.0000      -0.428610       -11.6631
 149   2.0000      -0.428498       -11.6600
 150   2.0000      -0.426630       -11.6092
 151   2.0000      -0.422959       -11.5093
 152   2.0000      -0.418071       -11.3763
 153   2.0000      -0.416664       -11.3380
 154   2.0000      -0.411230       -11.1901
 155   2.0000      -0.410374       -11.1668
 156   2.0000      -0.402348       -10.9484
 157   2.0000      -0.400700       -10.9036
 158   2.0000      -0.399119       -10.8606
 159   2.0000      -0.396710       -10.7950
 160   2.0000      -0.390702       -10.6316
 161   2.0000      -0.387618       -10.5476
 162   2.0000      -0.382687       -10.4134
 163   2.0000      -0.380768       -10.3612
 164   2.0000      -0.375902       -10.2288
 165   2.0000      -0.375148       -10.2083
 166   2.0000      -0.373514       -10.1638
 167   2.0000      -0.372701       -10.1417
 168   2.0000      -0.368217       -10.0197
 169   2.0000      -0.365639        -9.9495
 170   2.0000      -0.358981        -9.7684
 171   2.0000      -0.358082        -9.7439
 172   2.0000      -0.354469        -9.6456
 173   2.0000      -0.348020        -9.4701
 174   2.0000      -0.347504        -9.4561
 175   2.0000      -0.345880        -9.4119
 176   2.0000      -0.344081        -9.3629
 177   2.0000      -0.338133        -9.2011
 178   2.0000      -0.335162        -9.1202
 179   2.0000      -0.323336        -8.7984
 180   2.0000      -0.315378        -8.5819
 181   2.0000      -0.311922        -8.4878
 182   2.0000      -0.299663        -8.1542
 183   2.0000      -0.296909        -8.0793
 184   2.0000      -0.295908        -8.0521
 185   2.0000      -0.289733        -7.8840
 186   2.0000      -0.289122        -7.8674
 187   2.0000      -0.278691        -7.5836
 188   2.0000      -0.274057        -7.4575
 189   2.0000      -0.267564        -7.2808
 190   2.0000      -0.265509        -7.2249
 191   2.0000      -0.260673        -7.0933
 192   2.0000      -0.259743        -7.0680
 193   2.0000      -0.255557        -6.9541
 194   2.0000      -0.254853        -6.9349
 195   2.0000      -0.234554        -6.3825
 196   2.0000      -0.228849        -6.2273
 197   2.0000      -0.225928        -6.1478
 198   2.0000      -0.216308        -5.8860
 199   2.0000      -0.206786        -5.6269
 200   2.0000      -0.195979        -5.3329
 201   0.0000      -0.077655        -2.1131
 202   0.0000      -0.061709        -1.6792
 203   0.0000      -0.049114        -1.3365
 204   0.0000      -0.039561        -1.0765
 205   0.0000      -0.027892        -0.7590

Total SCF time: 0 days 0 hours 3 min 34 sec

Dispersion correction           -0.164117360
FINAL SINGLE POINT ENERGY     -2387.498850766251
Dispersion correction                    ... done
Dispersion correction           -0.166662252
FINAL SINGLE POINT ENERGY     -2387.421291890299
Dispersion correction                    ... done
Dispersion correction           -0.163108214
FINAL SINGLE POINT ENERGY     -2387.475445600494
Dispersion correction                    ... done
Dispersion correction           -0.156197845
FINAL SINGLE POINT ENERGY     -2387.509928311074
Dispersion correction                    ... done

CARTESIAN COORDINATES (ANGSTROEM)
---------------------------------
  C      2.336828    2.187826   -0.731548
  C      2.954555    3.310423   -0.191922
  C      4.352359    3.412461    0.046883
  C      4.925630    4.614526    0.571106
  C      6.285247    4.690060    0.776966
  C      7.092185    3.584231    0.467017
  C      6.452150    2.432453   -0.034334
  C      7.247617    1.215189   -0.366564
  C      8.487206    1.305620   -1.018951
  C      9.159969    0.129416   -1.328809
  C      8.595151   -1.090794   -0.972954
  C      7.362112   -1.084835   -0.305744
  C      6.686314   -2.345808    0.115708
  C      7.400789   -3.533972    0.342727
  C      6.692642   -4.674945    0.707591
  C      5.312039   -4.601815    0.843577
  C      4.680246   -3.364940    0.622893
  C      3.236188   -3.223345    0.793617
  C      2.593600   -2.038309    0.803414
  C      1.149664   -1.886695    0.969703
  C      0.603415   -0.675153    1.420298
  C     -0.768279   -0.508223    1.571404
  C     -1.642239   -1.551807    1.242357
  N     -3.045740   -1.387704    1.296202
  C     -3.904301   -1.787547    0.274530
  C     -3.591240   -2.234144   -1.010589
  C     -4.640650   -2.548657   -1.867737
  C     -5.978385   -2.413801   -1.462081
  C     -6.288225   -1.949703   -0.186275
  C     -5.246387   -1.623577    0.690150
  C     -5.190788   -1.090601    2.032079
  C     -6.174301   -0.725432    2.952402
  C     -5.785538   -0.239703    4.197415
  C     -4.424529   -0.132630    4.527045
  C     -3.423890   -0.492360    3.625825
  C     -3.818036   -0.956467    2.369396
  C     -1.112574   -2.775000    0.808974
  C      0.257037   -2.935241    0.673048
  N      5.367842   -2.281321    0.261120
  N      6.717089    0.045215   -0.020929
  N      5.149973    2.347254   -0.233835
  C      0.929977    2.034431   -0.971372
  C      0.404757    0.840976   -1.539606
  C     -0.950937    0.634456   -1.713178
  C     -1.875724    1.627501   -1.320128
  N     -3.280038    1.404989   -1.384757
  C     -4.150813    1.701744   -0.350235
  C     -3.853470    2.136030    0.949995
  C     -4.913912    2.358135    1.821451
  C     -6.237867    2.135145    1.420691
  C     -6.530658    1.662183    0.131829
  C     -5.483702    1.436896   -0.753842
  C     -5.393132    0.922829   -2.105072
  C     -6.334833    0.473678   -3.016861
  C     -5.902195    0.054475   -4.282544
  C     -4.542869    0.103239   -4.630203
  C     -3.578872    0.548582   -3.728848
  C     -4.013688    0.934446   -2.453818
  C     -1.381644    2.847675   -0.820413
  C     -0.025833    3.046578   -0.652391
  H      3.001676    1.354682   -0.980715
  H      2.357873    4.189441    0.066774
  H      4.272725    5.462885    0.795206
  H      6.736368    5.601366    1.180449
  H      8.170027    3.599108    0.640962
  H      8.894927    2.279916   -1.299286
  H     10.117204    0.161227   -1.856980
  H      9.093892   -2.028655   -1.228533
  H      8.489016   -3.560260    0.254170
  H      7.218991   -5.615838    0.891439
  H      4.724922   -5.478981    1.129087
  H      2.685282   -4.155784    0.959431
  H      3.195979   -1.126364    0.696449
  H      1.275700    0.157001    1.648757
  H     -1.166043    0.451852    1.909492
  H     -2.551773   -2.311965   -1.322422
  H     -4.418366   -2.891058   -2.882103
  H     -6.776116   -2.656867   -2.170955
  H     -7.329044   -1.823443    0.124620
  H     -7.230199   -0.820319    2.682207
  H     -6.541782    0.054301    4.930286
  H     -4.140536    0.236475    5.516514
  H     -2.369086   -0.420806    3.899502
  H     -1.789535   -3.600130    0.577674
  H      0.644740   -3.888346    0.306613
  H      1.108935    0.053678   -1.823547
  H     -1.311665   -0.319227   -2.113109
  H     -2.821457    2.272986    1.259551
  H     -4.708229    2.687946    2.842557
  H     -7.044084    2.307157    2.139540
  H     -7.562067    1.456994   -0.166765
  H     -7.390678    0.444342   -2.734304
  H     -6.630082   -0.307515   -5.013521
  H     -4.232388   -0.209698   -5.630450
  H     -2.525374    0.602857   -4.009807
  H     -2.084893    3.651197   -0.586743
  H      0.319303    4.007001   -0.266730

-----------------------------------------------------------------------------
         ABSORPTION SPECTRUM VIA TRANSITION ELECTRIC DIPOLE MOMENTS
-----------------------------------------------------------------------------
State   Energy    Wavelength  fosc         T2        TX        TY        TZ
        (cm-1)      (nm)                 (au**2)    (au)      (au)      (au)
-----------------------------------------------------------------------------
   1   23175.0    431.5   0.226154447   3.21263   1.72725   0.39650   0.26841
   2   24585.4    406.7   0.211974123   2.83845  -1.60652  -0.40982  -0.29930
   3   26163.1    382.2   0.282280798   3.55196  -1.86684   0.25262   0.05518
   4   26803.1    373.1   0.001599552   0.01965  -0.13825  -0.01860  -0.01366
   5   27446.8    364.3   0.330705591   3.96667  -1.97908   0.17470   0.13921
   6   16157.6    618.9   spin forbidden (mult=3)
   7   20153.1    496.2   spin forbidden (mult=3)
   8   23229.7    430.5   spin forbidden (mult=3)
   9   24595.1    406.6   spin forbidden (mult=3)
  10   26096.4    383.2   spin forbidden (mult=3)

Dispersion correction           -0.158822773
FINAL SINGLE POINT ENERGY     -2387.513231377457
Dispersion correction                    ... done

DIPOLE MOMENT
-------------
                                X             Y             Z
Electronic contribution:      2.57095      -3.25087      -0.03248
Nuclear contribution   :     -7.62768      -0.18418       0.46657
                        -----------------------------------------
Total Dipole Moment    :     -5.05673      -3.43505       0.43408
                        -----------------------------------------
Magnitude (a.u.)       :      6.12850
Magnitude (Debye)      :     15.57740

Rotational constants in cm-1:     0.002492     0.000781     0.000728
Rotational constants in MHz :    74.714196    23.422398    21.817735

                             ****ORCA TERMINATED NORMALLY****
TOTAL RUN TIME: 0 days 0 hours 59 minutes 9 seconds 512 msec
