                         Program Version 5.0.3 -  RELEASE  -
|  1> ! PBE0 def2-SVP D3BJ def2/J RIJCOSX tightSCF noautostart miniprint nopop defgrid3 Opt
|  2> %maxcore    4000
|  3> %pal    nprocs  40  end
|  4> %geom	Convergence	loose
|  5> 	MaxIter	5
|  6> end
|  7> %tddft  PrintLevel  3
|  8> 	IRootMult	Singlet
|  9> 	NRoots	5
| 10> 	IRoot	1
| 11> 	TDA	True
| 12>         MaxDim  10
| 13> end
| 14> * xyzfile 0 1 S0_XTB_OPT_XYZ.xyz
| 15>
| 16>
| 17>                          ****END OF INPUT****
Dispersion correction           -0.122370225
FINAL SINGLE POINT ENERGY     -2220.780814666563
Dispersion correction                    ... done
Dispersion correction           -0.121987647
FINAL SINGLE POINT ENERGY     -2220.794130163579
Dispersion correction                    ... done
Dispersion correction           -0.121929398
FINAL SINGLE POINT ENERGY     -2220.795165708385
Dispersion correction                    ... done
Dispersion correction           -0.121932190
FINAL SINGLE POINT ENERGY     -2220.795310539214
Dispersion correction                    ... done
                    ***********************HURRAY********************

CARTESIAN COORDINATES (ANGSTROEM)
---------------------------------
  O      0.000027    1.054535   -0.002979
  C      0.000059   -0.183884   -0.000278
  C      1.156429   -1.089632    0.008722
  C      2.505456   -0.787941    0.016654
  C      3.454654   -1.827275    0.025952
  C      4.876961   -1.593434    0.032642
  C      5.502531   -0.384067    0.015512
  C      6.928893   -0.153098    0.023875
  C      7.408304    1.172792   -0.034444
  C      8.763645    1.458194   -0.037604
  C      9.700560    0.417789    0.028271
  N     11.074034    0.695803    0.031149
  C     11.714757    1.624972    0.849275
  C     11.187085    2.434480    1.857559
  C     12.067354    3.260077    2.550513
  C     13.439564    3.276918    2.258812
  C     13.963480    2.451266    1.269372
  C     13.100394    1.614367    0.558615
  C     13.300582    0.632662   -0.485114
  C     14.423388    0.195625   -1.191327
  C     14.264030   -0.766427   -2.183468
  C     12.993330   -1.280446   -2.482477
  C     11.859083   -0.860312   -1.794233
  C     12.028128    0.087879   -0.782910
  C      9.244917   -0.909448    0.094614
  C      7.890204   -1.186262    0.089110
  C      3.000624   -3.185862    0.028457
  C      1.659072   -3.504833    0.019753
  C      0.711809   -2.462476    0.009434
  C     -0.711558   -2.462537   -0.000147
  C     -1.658762   -3.504984   -0.006028
  C     -3.000332   -3.186132   -0.016060
  C     -3.454440   -1.827572   -0.019216
  C     -4.876763   -1.593835   -0.026588
  C     -5.502394   -0.384457   -0.012949
  C     -6.928772   -0.153603   -0.022072
  C     -7.408304    1.172349    0.033754
  C     -8.763670    1.457639    0.036174
  C     -9.700484    0.417036   -0.028011
  N    -11.073984    0.694913   -0.031635
  C    -11.714629    1.622689   -0.851398
  C    -11.186861    2.430470   -1.861016
  C    -12.067062    3.254880   -2.555467
  C    -13.439301    3.272216   -2.263928
  C    -13.963313    2.448255   -1.273131
  C    -13.100295    1.612575   -0.560856
  C    -13.300581    0.632651    0.484526
  C    -14.423459    0.196807    1.191361
  C    -14.264201   -0.763559    2.185150
  C    -12.993529   -1.277060    2.485165
  C    -11.859212   -0.858091    1.796326
  C    -12.028154    0.088383    0.783379
  C     -9.244714   -0.910275   -0.091950
  C     -7.889979   -1.186964   -0.085711
  C     -2.505303   -0.788153   -0.014487
  C     -1.156257   -1.089729   -0.005340
  H      2.802384    0.263017    0.016940
  H      5.492952   -2.498753    0.049748
  H      4.887772    0.520402   -0.011334
  H      6.688068    1.992304   -0.097829
  H      9.110488    2.489888   -0.116689
  H     10.125027    2.415715    2.105078
  H     11.678592    3.904376    3.342367
  H     14.101465    3.938338    2.821703
  H     15.034442    2.451054    1.053982
  H     15.409967    0.609562   -0.970712
  H     15.132788   -1.119210   -2.743152
  H     12.887539   -2.022707   -3.276942
  H     10.873176   -1.251695   -2.048100
  H      9.971046   -1.719969    0.178178
  H      7.567359   -2.226549    0.158177
  H      3.747095   -3.984178    0.036630
  H      1.341285   -4.550257    0.021224
  H     -1.340914   -4.550387   -0.003069
  H     -3.746757   -3.984518   -0.020823
  H     -5.492711   -2.499234   -0.040838
  H     -4.887685    0.520113    0.011594
  H     -6.688148    1.992033    0.095805
  H     -9.110614    2.489443    0.113360
  H    -10.124778    2.411278   -2.108399
  H    -11.678225    3.897824   -3.348385
  H    -14.101149    3.932670   -2.828015
  H    -15.034297    2.448406   -1.057850
  H    -15.410017    0.610361    0.969936
  H    -15.133016   -1.115397    2.745339
  H    -12.887816   -2.017971    3.280899
  H    -10.873332   -1.249040    2.050960
  H     -9.970762   -1.720994   -0.174293
  H     -7.567018   -2.227329   -0.153035
  H     -2.802295    0.262775   -0.019425

ORBITAL ENERGIES
----------------

  NO   OCC          E(Eh)            E(eV)
   0   2.0000     -19.213221      -522.8183
   1   2.0000     -14.451655      -393.2495
   2   2.0000     -14.451654      -393.2495
   3   2.0000     -10.328608      -281.0557
   4   2.0000     -10.294839      -280.1368
   5   2.0000     -10.294839      -280.1368
   6   2.0000     -10.278619      -279.6954
   7   2.0000     -10.278618      -279.6954
   8   2.0000     -10.278501      -279.6922
   9   2.0000     -10.278501      -279.6922
  10   2.0000     -10.266691      -279.3709
  11   2.0000     -10.266619      -279.3689
  12   2.0000     -10.266602      -279.3685
  13   2.0000     -10.266440      -279.3640
  14   2.0000     -10.262848      -279.2663
  15   2.0000     -10.262844      -279.2662
  16   2.0000     -10.261272      -279.2234
  17   2.0000     -10.261267      -279.2233
  18   2.0000     -10.261160      -279.2204
  19   2.0000     -10.261070      -279.2179
  20   2.0000     -10.260807      -279.2107
  21   2.0000     -10.260806      -279.2107
  22   2.0000     -10.255670      -279.0710
  23   2.0000     -10.255670      -279.0710
  24   2.0000     -10.254876      -279.0494
  25   2.0000     -10.254875      -279.0493
  26   2.0000     -10.254836      -279.0483
  27   2.0000     -10.254836      -279.0483
  28   2.0000     -10.254768      -279.0464
  29   2.0000     -10.254768      -279.0464
  30   2.0000     -10.254077      -279.0276
  31   2.0000     -10.254076      -279.0276
  32   2.0000     -10.253816      -279.0205
  33   2.0000     -10.253795      -279.0199
  34   2.0000     -10.253751      -279.0188
  35   2.0000     -10.253751      -279.0188
  36   2.0000     -10.242128      -278.7025
  37   2.0000     -10.242127      -278.7025
  38   2.0000     -10.242029      -278.6998
  39   2.0000     -10.242028      -278.6997
  40   2.0000     -10.241887      -278.6959
  41   2.0000     -10.241886      -278.6959
  42   2.0000     -10.241716      -278.6913
  43   2.0000     -10.241716      -278.6913
  44   2.0000     -10.241117      -278.6749
  45   2.0000     -10.241116      -278.6749
  46   2.0000     -10.240874      -278.6684
  47   2.0000     -10.240874      -278.6683
  48   2.0000     -10.240607      -278.6611
  49   2.0000     -10.240606      -278.6611
  50   2.0000     -10.240288      -278.6524
  51   2.0000     -10.240287      -278.6524
  52   2.0000     -10.234625      -278.4983
  53   2.0000     -10.234624      -278.4983
  54   2.0000     -10.234374      -278.4915
  55   2.0000     -10.234374      -278.4915
  56   2.0000      -1.053795       -28.6752
  57   2.0000      -1.025385       -27.9021
  58   2.0000      -1.025384       -27.9021
  59   2.0000      -0.927024       -25.2256
  60   2.0000      -0.903641       -24.5893
  61   2.0000      -0.903285       -24.5796
  62   2.0000      -0.891275       -24.2528
  63   2.0000      -0.874027       -23.7835
  64   2.0000      -0.872330       -23.7373
  65   2.0000      -0.871150       -23.7052
  66   2.0000      -0.871147       -23.7051
  67   2.0000      -0.856302       -23.3012
  68   2.0000      -0.831033       -22.6136
  69   2.0000      -0.823741       -22.4151
  70   2.0000      -0.807265       -21.9668
  71   2.0000      -0.806831       -21.9550
  72   2.0000      -0.792805       -21.5733
  73   2.0000      -0.784469       -21.3465
  74   2.0000      -0.784251       -21.3405
  75   2.0000      -0.784005       -21.3339
  76   2.0000      -0.779107       -21.2006
  77   2.0000      -0.770457       -20.9652
  78   2.0000      -0.770337       -20.9619
  79   2.0000      -0.765041       -20.8178
  80   2.0000      -0.751095       -20.4383
  81   2.0000      -0.737628       -20.0719
  82   2.0000      -0.737613       -20.0715
  83   2.0000      -0.735505       -20.0141
  84   2.0000      -0.717297       -19.5187
  85   2.0000      -0.704035       -19.1578
  86   2.0000      -0.690248       -18.7826
  87   2.0000      -0.673515       -18.3273
  88   2.0000      -0.661587       -18.0027
  89   2.0000      -0.652050       -17.7432
  90   2.0000      -0.650552       -17.7024
  91   2.0000      -0.642904       -17.4943
  92   2.0000      -0.637617       -17.3504
  93   2.0000      -0.627879       -17.0855
  94   2.0000      -0.623275       -16.9602
  95   2.0000      -0.621858       -16.9216
  96   2.0000      -0.619640       -16.8613
  97   2.0000      -0.605917       -16.4878
  98   2.0000      -0.601185       -16.3591
  99   2.0000      -0.593640       -16.1538
 100   2.0000      -0.593490       -16.1497
 101   2.0000      -0.592356       -16.1188
 102   2.0000      -0.583877       -15.8881
 103   2.0000      -0.571929       -15.5630
 104   2.0000      -0.561161       -15.2700
 105   2.0000      -0.560713       -15.2578
 106   2.0000      -0.543475       -14.7887
 107   2.0000      -0.539417       -14.6783
 108   2.0000      -0.537299       -14.6206
 109   2.0000      -0.533671       -14.5219
 110   2.0000      -0.528672       -14.3859
 111   2.0000      -0.525900       -14.3105
 112   2.0000      -0.519729       -14.1425
 113   2.0000      -0.509211       -13.8563
 114   2.0000      -0.508691       -13.8422
 115   2.0000      -0.492320       -13.3967
 116   2.0000      -0.491480       -13.3738
 117   2.0000      -0.483438       -13.1550
 118   2.0000      -0.482913       -13.1407
 119   2.0000      -0.477744       -13.0001
 120   2.0000      -0.473174       -12.8757
 121   2.0000      -0.472584       -12.8597
 122   2.0000      -0.470846       -12.8124
 123   2.0000      -0.470269       -12.7967
 124   2.0000      -0.468270       -12.7423
 125   2.0000      -0.464123       -12.6294
 126   2.0000      -0.462373       -12.5818
 127   2.0000      -0.457471       -12.4484
 128   2.0000      -0.456701       -12.4275
 129   2.0000      -0.455217       -12.3871
 130   2.0000      -0.454050       -12.3553
 131   2.0000      -0.453084       -12.3291
 132   2.0000      -0.452647       -12.3172
 133   2.0000      -0.450577       -12.2608
 134   2.0000      -0.446035       -12.1372
 135   2.0000      -0.444359       -12.0916
 136   2.0000      -0.444249       -12.0886
 137   2.0000      -0.443240       -12.0612
 138   2.0000      -0.440468       -11.9858
 139   2.0000      -0.436745       -11.8844
 140   2.0000      -0.433224       -11.7886
 141   2.0000      -0.432782       -11.7766
 142   2.0000      -0.418985       -11.4012
 143   2.0000      -0.412706       -11.2303
 144   2.0000      -0.411560       -11.1991
 145   2.0000      -0.409451       -11.1417
 146   2.0000      -0.406097       -11.0505
 147   2.0000      -0.401075       -10.9138
 148   2.0000      -0.399487       -10.8706
 149   2.0000      -0.394739       -10.7414
 150   2.0000      -0.388360       -10.5678
 151   2.0000      -0.386468       -10.5163
 152   2.0000      -0.381793       -10.3891
 153   2.0000      -0.381727       -10.3873
 154   2.0000      -0.380076       -10.3424
 155   2.0000      -0.379888       -10.3373
 156   2.0000      -0.375877       -10.2281
 157   2.0000      -0.375495       -10.2177
 158   2.0000      -0.373766       -10.1707
 159   2.0000      -0.371960       -10.1215
 160   2.0000      -0.364772        -9.9259
 161   2.0000      -0.364595        -9.9211
 162   2.0000      -0.360833        -9.8188
 163   2.0000      -0.358496        -9.7552
 164   2.0000      -0.355350        -9.6696
 165   2.0000      -0.353087        -9.6080
 166   2.0000      -0.353079        -9.6078
 167   2.0000      -0.350972        -9.5504
 168   2.0000      -0.345844        -9.4109
 169   2.0000      -0.328576        -8.9410
 170   2.0000      -0.309011        -8.4086
 171   2.0000      -0.300630        -8.1805
 172   2.0000      -0.299260        -8.1433
 173   2.0000      -0.292184        -7.9507
 174   2.0000      -0.288842        -7.8598
 175   2.0000      -0.285754        -7.7758
 176   2.0000      -0.285712        -7.7746
 177   2.0000      -0.278183        -7.5697
 178   2.0000      -0.276710        -7.5297
 179   2.0000      -0.272002        -7.4015
 180   2.0000      -0.272001        -7.4015
 181   2.0000      -0.246972        -6.7204
 182   2.0000      -0.232736        -6.3331
 183   2.0000      -0.232735        -6.3331
 184   2.0000      -0.226443        -6.1618
 185   2.0000      -0.214031        -5.8241
 186   2.0000      -0.203436        -5.5358
 187   0.0000      -0.106812        -2.9065
 188   0.0000      -0.079807        -2.1717
 189   0.0000      -0.061689        -1.6787
 190   0.0000      -0.034603        -0.9416
 191   0.0000      -0.034599        -0.9415

Total SCF time: 0 days 0 hours 1 min 56 sec

-----------------------------------------------------------------------------
         ABSORPTION SPECTRUM VIA TRANSITION ELECTRIC DIPOLE MOMENTS
-----------------------------------------------------------------------------
State   Energy    Wavelength  fosc         T2        TX        TY        TZ
        (cm-1)      (nm)                 (au**2)    (au)      (au)      (au)
-----------------------------------------------------------------------------
   1   17102.6    584.7   0.686655495  13.21755  -3.63558  -0.00034  -0.01114
   2   20819.4    480.3   0.021785859   0.34449  -0.00005   0.58694  -0.00091
   3   22293.5    448.6   0.955507678  14.11017  -3.75633  -0.00000  -0.01245
   4   23794.8    420.3   1.395505206  19.30742  -4.39399  -0.00112  -0.01569
   5   25189.4    397.0   0.000026237   0.00034  -0.00302   0.01006   0.01525

Dispersion correction           -0.121938562
FINAL SINGLE POINT ENERGY     -2220.795339869456

DIPOLE MOMENT
-------------
                                X             Y             Z
Electronic contribution:      0.00034       0.51649      -0.00376
Nuclear contribution   :      0.00007      -1.44774       0.00680
                        -----------------------------------------
Total Dipole Moment    :      0.00040      -0.93126       0.00304
                        -----------------------------------------
Magnitude (a.u.)       :      0.93126
Magnitude (Debye)      :      2.36708

Rotational constants in cm-1:     0.005274     0.000247     0.000243
Rotational constants in MHz :   158.122216     7.419534     7.274422

                             ****ORCA TERMINATED NORMALLY****
TOTAL RUN TIME: 0 days 0 hours 29 minutes 18 seconds 680 msec
