                         Program Version 5.0.3 -  RELEASE  -
|  1> ! PBE0 def2-SVP D3BJ def2/J RIJCOSX tightSCF noautostart miniprint nopop defgrid3 Opt
|  2> %maxcore    4000
|  3> %pal    nprocs  40  end
|  4> %geom	Convergence	loose
|  5> 	MaxIter	5
|  6> end
|  7> %tddft  PrintLevel  3
|  8> 	IRootMult	Triplet
|  9> 	NRoots	5
| 10> 	IRoot	1
| 11> 	TDA	True
| 12>         MaxDim  10
| 13> end
| 14> * xyzfile 0 1 T1_XTB_OPT_XYZ.xyz
| 15>
| 16>
| 17>                          ****END OF INPUT****
Dispersion correction           -0.122496831
FINAL SINGLE POINT ENERGY     -2220.810600585145
Dispersion correction                    ... done
Dispersion correction           -0.121971328
FINAL SINGLE POINT ENERGY     -2220.818840563278
Dispersion correction                    ... done
Dispersion correction           -0.121891724
FINAL SINGLE POINT ENERGY     -2220.819073576156
Dispersion correction                    ... done
Dispersion correction           -0.121873437
FINAL SINGLE POINT ENERGY     -2220.819127279952
Dispersion correction                    ... done
                    ***********************HURRAY********************

CARTESIAN COORDINATES (ANGSTROEM)
---------------------------------
  O      0.000034    0.928370   -0.000903
  C      0.000072   -0.288841    0.000756
  C      1.169516   -1.202273    0.008569
  C      2.500932   -0.884329    0.015474
  C      3.472340   -1.920819    0.023869
  C      4.876935   -1.671975    0.029922
  C      5.489086   -0.443014    0.014871
  C      6.907892   -0.188339    0.023295
  C      7.366371    1.146146   -0.028108
  C      8.717133    1.453001   -0.033341
  C      9.671391    0.428589    0.029141
  N     11.042012    0.730472    0.032151
  C     11.672021    1.642710    0.875813
  C     11.137098    2.413573    1.910189
  C     12.007409    3.232783    2.622808
  C     13.377981    3.282915    2.324236
  C     13.908586    2.498487    1.306358
  C     13.055392    1.667355    0.574981
  C     13.264790    0.725341   -0.501880
  C     14.390462    0.330325   -1.230142
  C     14.241492   -0.602216   -2.250539
  C     12.977384   -1.130919   -2.554842
  C     11.841190   -0.753753   -1.845482
  C     11.999787    0.167905   -0.808323
  C      9.237557   -0.905109    0.091002
  C      7.887038   -1.205855    0.081672
  C      3.004280   -3.283927    0.026097
  C      1.670866   -3.610746    0.017967
  C      0.707925   -2.570284    0.008476
  C     -0.707641   -2.570339   -0.000680
  C     -1.670520   -3.610879   -0.007296
  C     -3.003953   -3.284160   -0.016237
  C     -3.472095   -1.921080   -0.017662
  C     -4.876712   -1.672349   -0.024241
  C     -5.488952   -0.443404   -0.012273
  C     -6.907785   -0.188870   -0.021279
  C     -7.366390    1.145677    0.027228
  C     -8.717182    1.452417    0.031744
  C     -9.671338    0.427782   -0.028590
  N    -11.041993    0.729511   -0.032379
  C    -11.671981    1.640033   -0.877902
  C    -11.137053    2.408682   -1.913925
  C    -12.007341    3.226442   -2.628231
  C    -13.377899    3.277280   -2.329712
  C    -13.908512    2.495026   -1.310167
  C    -13.055339    1.665386   -0.577071
  C    -13.264746    0.725634    0.501763
  C    -14.390421    0.332179    1.230863
  C    -14.241474   -0.598254    2.253187
  C    -12.977384   -1.126381    2.558558
  C    -11.841188   -0.750743    1.848390
  C    -11.999761    0.168770    0.809327
  C     -9.237376   -0.906005   -0.087551
  C     -7.886830   -1.206604   -0.077503
  C     -2.500753   -0.884515   -0.012179
  C     -1.169315   -1.202363   -0.004497
  H      2.788228    0.169478    0.015789
  H      5.509715   -2.565324    0.044470
  H      4.859307    0.451142   -0.010033
  H      6.632773    1.954604   -0.083303
  H      9.047598    2.490774   -0.104724
  H     10.076274    2.371437    2.161029
  H     11.612005    3.846453    3.435638
  H     14.031810    3.938679    2.903045
  H     14.977578    2.525441    1.082461
  H     15.371266    0.754240   -1.002284
  H     15.112103   -0.921555   -2.827254
  H     12.878730   -1.851504   -3.370115
  H     10.861120   -1.158821   -2.101350
  H      9.977772   -1.703782    0.166810
  H      7.582731   -2.252441    0.140774
  H      3.754248   -4.079198    0.033699
  H      1.359270   -4.657704    0.019213
  H     -1.358866   -4.657820   -0.005711
  H     -3.753873   -4.079494   -0.021633
  H     -5.509426   -2.565779   -0.036404
  H     -4.859240    0.450860    0.010391
  H     -6.632869    1.954320    0.080724
  H     -9.047744    2.490310    0.100887
  H    -10.076240    2.365947   -2.164713
  H    -11.611936    3.838377   -3.442368
  H    -14.031713    3.931862   -2.909874
  H    -14.977495    2.522509   -1.086293
  H    -15.371211    0.755663    1.002145
  H    -15.112088   -0.916358    2.830579
  H    -12.878745   -1.845280    3.375319
  H    -10.861134   -1.155330    2.105078
  H     -9.977520   -1.704900   -0.161694
  H     -7.582410   -2.253281   -0.134369
  H     -2.788102    0.169272   -0.015370

ORBITAL ENERGIES
----------------

  NO   OCC          E(Eh)            E(eV)
   0   2.0000     -19.214228      -522.8457
   1   2.0000     -14.451374      -393.2419
   2   2.0000     -14.451374      -393.2419
   3   2.0000     -10.328509      -281.0530
   4   2.0000     -10.294990      -280.1409
   5   2.0000     -10.294990      -280.1409
   6   2.0000     -10.278335      -279.6877
   7   2.0000     -10.278333      -279.6877
   8   2.0000     -10.278222      -279.6846
   9   2.0000     -10.278222      -279.6846
  10   2.0000     -10.267377      -279.3895
  11   2.0000     -10.267371      -279.3894
  12   2.0000     -10.266938      -279.3776
  13   2.0000     -10.266667      -279.3702
  14   2.0000     -10.262169      -279.2478
  15   2.0000     -10.262162      -279.2476
  16   2.0000     -10.261557      -279.2312
  17   2.0000     -10.261556      -279.2311
  18   2.0000     -10.261027      -279.2168
  19   2.0000     -10.260926      -279.2140
  20   2.0000     -10.260275      -279.1963
  21   2.0000     -10.260256      -279.1958
  22   2.0000     -10.256462      -279.0925
  23   2.0000     -10.256461      -279.0925
  24   2.0000     -10.256199      -279.0854
  25   2.0000     -10.256199      -279.0854
  26   2.0000     -10.255396      -279.0635
  27   2.0000     -10.255395      -279.0635
  28   2.0000     -10.255348      -279.0622
  29   2.0000     -10.255347      -279.0622
  30   2.0000     -10.255216      -279.0586
  31   2.0000     -10.255214      -279.0586
  32   2.0000     -10.254322      -279.0343
  33   2.0000     -10.254322      -279.0343
  34   2.0000     -10.252449      -278.9833
  35   2.0000     -10.252426      -278.9827
  36   2.0000     -10.241907      -278.6965
  37   2.0000     -10.241907      -278.6965
  38   2.0000     -10.241803      -278.6936
  39   2.0000     -10.241803      -278.6936
  40   2.0000     -10.241684      -278.6904
  41   2.0000     -10.241684      -278.6904
  42   2.0000     -10.241521      -278.6860
  43   2.0000     -10.241521      -278.6859
  44   2.0000     -10.240840      -278.6674
  45   2.0000     -10.240839      -278.6674
  46   2.0000     -10.240600      -278.6609
  47   2.0000     -10.240600      -278.6609
  48   2.0000     -10.240419      -278.6560
  49   2.0000     -10.240419      -278.6560
  50   2.0000     -10.240131      -278.6481
  51   2.0000     -10.240131      -278.6481
  52   2.0000     -10.234398      -278.4921
  53   2.0000     -10.234398      -278.4921
  54   2.0000     -10.234173      -278.4860
  55   2.0000     -10.234173      -278.4860
  56   2.0000      -1.065872       -29.0038
  57   2.0000      -1.025187       -27.8968
  58   2.0000      -1.025187       -27.8968
  59   2.0000      -0.925382       -25.1809
  60   2.0000      -0.903791       -24.5934
  61   2.0000      -0.903460       -24.5844
  62   2.0000      -0.890201       -24.2236
  63   2.0000      -0.873802       -23.7774
  64   2.0000      -0.872129       -23.7318
  65   2.0000      -0.870819       -23.6962
  66   2.0000      -0.870817       -23.6961
  67   2.0000      -0.855229       -23.2720
  68   2.0000      -0.831025       -22.6133
  69   2.0000      -0.823070       -22.3969
  70   2.0000      -0.806803       -21.9542
  71   2.0000      -0.806240       -21.9389
  72   2.0000      -0.792475       -21.5643
  73   2.0000      -0.784544       -21.3485
  74   2.0000      -0.784218       -21.3397
  75   2.0000      -0.784150       -21.3378
  76   2.0000      -0.779682       -21.2162
  77   2.0000      -0.770493       -20.9662
  78   2.0000      -0.770386       -20.9633
  79   2.0000      -0.764802       -20.8113
  80   2.0000      -0.750807       -20.4305
  81   2.0000      -0.737214       -20.0606
  82   2.0000      -0.737183       -20.0598
  83   2.0000      -0.736254       -20.0345
  84   2.0000      -0.716127       -19.4868
  85   2.0000      -0.700241       -19.0545
  86   2.0000      -0.691102       -18.8059
  87   2.0000      -0.673398       -18.3241
  88   2.0000      -0.661467       -17.9994
  89   2.0000      -0.652130       -17.7454
  90   2.0000      -0.650539       -17.7021
  91   2.0000      -0.643153       -17.5011
  92   2.0000      -0.637273       -17.3411
  93   2.0000      -0.626325       -17.0432
  94   2.0000      -0.623442       -16.9647
  95   2.0000      -0.620896       -16.8954
  96   2.0000      -0.620314       -16.8796
  97   2.0000      -0.605732       -16.4828
  98   2.0000      -0.601245       -16.3607
  99   2.0000      -0.593421       -16.1478
 100   2.0000      -0.593267       -16.1436
 101   2.0000      -0.591867       -16.1055
 102   2.0000      -0.584320       -15.9002
 103   2.0000      -0.571738       -15.5578
 104   2.0000      -0.561073       -15.2676
 105   2.0000      -0.560621       -15.2553
 106   2.0000      -0.542752       -14.7690
 107   2.0000      -0.539174       -14.6717
 108   2.0000      -0.537060       -14.6141
 109   2.0000      -0.533054       -14.5051
 110   2.0000      -0.528498       -14.3812
 111   2.0000      -0.526211       -14.3189
 112   2.0000      -0.519528       -14.1371
 113   2.0000      -0.509697       -13.8696
 114   2.0000      -0.508813       -13.8455
 115   2.0000      -0.492313       -13.3965
 116   2.0000      -0.492001       -13.3880
 117   2.0000      -0.483266       -13.1503
 118   2.0000      -0.482794       -13.1375
 119   2.0000      -0.476199       -12.9580
 120   2.0000      -0.473046       -12.8722
 121   2.0000      -0.472341       -12.8531
 122   2.0000      -0.470758       -12.8100
 123   2.0000      -0.470407       -12.8004
 124   2.0000      -0.468043       -12.7361
 125   2.0000      -0.463609       -12.6154
 126   2.0000      -0.462607       -12.5882
 127   2.0000      -0.457603       -12.4520
 128   2.0000      -0.456998       -12.4355
 129   2.0000      -0.455164       -12.3856
 130   2.0000      -0.454486       -12.3672
 131   2.0000      -0.453098       -12.3294
 132   2.0000      -0.452649       -12.3172
 133   2.0000      -0.450891       -12.2694
 134   2.0000      -0.446266       -12.1435
 135   2.0000      -0.444744       -12.1021
 136   2.0000      -0.443930       -12.0799
 137   2.0000      -0.443701       -12.0737
 138   2.0000      -0.440995       -12.0001
 139   2.0000      -0.437093       -11.8939
 140   2.0000      -0.432858       -11.7787
 141   2.0000      -0.432685       -11.7740
 142   2.0000      -0.420125       -11.4322
 143   2.0000      -0.412739       -11.2312
 144   2.0000      -0.411692       -11.2027
 145   2.0000      -0.410006       -11.1568
 146   2.0000      -0.406032       -11.0487
 147   2.0000      -0.400354       -10.8942
 148   2.0000      -0.398938       -10.8557
 149   2.0000      -0.397754       -10.8234
 150   2.0000      -0.389149       -10.5893
 151   2.0000      -0.388130       -10.5616
 152   2.0000      -0.381794       -10.3891
 153   2.0000      -0.381639       -10.3849
 154   2.0000      -0.379992       -10.3401
 155   2.0000      -0.379887       -10.3373
 156   2.0000      -0.376464       -10.2441
 157   2.0000      -0.375392       -10.2149
 158   2.0000      -0.374917       -10.2020
 159   2.0000      -0.372469       -10.1354
 160   2.0000      -0.364249        -9.9117
 161   2.0000      -0.363535        -9.8923
 162   2.0000      -0.360275        -9.8036
 163   2.0000      -0.357842        -9.7374
 164   2.0000      -0.355219        -9.6660
 165   2.0000      -0.352903        -9.6030
 166   2.0000      -0.352895        -9.6028
 167   2.0000      -0.350579        -9.5397
 168   2.0000      -0.345642        -9.4054
 169   2.0000      -0.328789        -8.9468
 170   2.0000      -0.308921        -8.4062
 171   2.0000      -0.300325        -8.1723
 172   2.0000      -0.299036        -8.1372
 173   2.0000      -0.293468        -7.9857
 174   2.0000      -0.289548        -7.8790
 175   2.0000      -0.286116        -7.7856
 176   2.0000      -0.286065        -7.7842
 177   2.0000      -0.278994        -7.5918
 178   2.0000      -0.275620        -7.5000
 179   2.0000      -0.271845        -7.3973
 180   2.0000      -0.271845        -7.3973
 181   2.0000      -0.245899        -6.6912
 182   2.0000      -0.232289        -6.3209
 183   2.0000      -0.232288        -6.3209
 184   2.0000      -0.225317        -6.1312
 185   2.0000      -0.214484        -5.8364
 186   2.0000      -0.201891        -5.4937
 187   0.0000      -0.106250        -2.8912
 188   0.0000      -0.078954        -2.1484
 189   0.0000      -0.063653        -1.7321
 190   0.0000      -0.034423        -0.9367
 191   0.0000      -0.034422        -0.9367

Total SCF time: 0 days 0 hours 2 min 3 sec

-----------------------------------------------------------------------------
         ABSORPTION SPECTRUM VIA TRANSITION ELECTRIC DIPOLE MOMENTS
-----------------------------------------------------------------------------
State   Energy    Wavelength  fosc         T2        TX        TY        TZ
        (cm-1)      (nm)                 (au**2)    (au)      (au)      (au)
-----------------------------------------------------------------------------
   1   17406.5    574.5   1.071570716  20.26680  -4.50184  -0.00018  -0.01410
   2   21082.7    474.3   0.027668869   0.43206  -0.00007   0.65731  -0.00078
   3   22052.8    453.5   1.150921371  17.18132  -4.14501  -0.00018  -0.01396
   4   23867.4    419.0   1.081208227  14.91350  -3.86177  -0.00019  -0.01459
   5   25100.5    398.4   0.000021661   0.00028   0.00032  -0.01680  -0.00133
   6   11690.6    855.4   spin forbidden (mult=3)
   7   16933.0    590.6   spin forbidden (mult=3)
   8   18323.6    545.7   spin forbidden (mult=3)
   9   21406.9    467.1   spin forbidden (mult=3)
  10   21515.0    464.8   spin forbidden (mult=3)

Dispersion correction           -0.121873170
FINAL SINGLE POINT ENERGY     -2220.819142319991

DIPOLE MOMENT
-------------
                                X             Y             Z
Electronic contribution:      0.00005      -0.04194      -0.00117
Nuclear contribution   :      0.00007      -1.14499       0.00291
                        -----------------------------------------
Total Dipole Moment    :      0.00012      -1.18692       0.00174
                        -----------------------------------------
Magnitude (a.u.)       :      1.18692
Magnitude (Debye)      :      3.01692

Rotational constants in cm-1:     0.005087     0.000249     0.000244
Rotational constants in MHz :   152.512333     7.455856     7.308449

                             ****ORCA TERMINATED NORMALLY****
TOTAL RUN TIME: 0 days 0 hours 30 minutes 23 seconds 497 msec
