                         Program Version 5.0.3 -  RELEASE  -
|  1> ! PBE0 def2-SVP D3BJ def2/J RIJCOSX tightSCF noautostart miniprint nopop defgrid3 Opt
|  2> %maxcore    4000
|  3> %pal    nprocs  40  end
|  4> %geom	Convergence	loose
|  5> 	MaxIter	5
|  6> end
|  7> %tddft  PrintLevel  3
|  8> 	IRootMult	Triplet
|  9> 	NRoots	5
| 10> 	IRoot	2
| 11> 	TDA	True
| 12>         MaxDim  10
| 13> end
| 14> * xyzfile 0 1 T1_XTB_OPT_XYZ.xyz
| 15>
| 16>
| 17>                          ****END OF INPUT****
Dispersion correction           -0.122496831
FINAL SINGLE POINT ENERGY     -2220.787008512584
Dispersion correction                    ... done
Dispersion correction           -0.121933831
FINAL SINGLE POINT ENERGY     -2220.799069422873
Dispersion correction                    ... done
Dispersion correction           -0.121821472
FINAL SINGLE POINT ENERGY     -2220.800219210494
Dispersion correction                    ... done
Dispersion correction           -0.121825630
FINAL SINGLE POINT ENERGY     -2220.800411934487
Dispersion correction                    ... done
                    ***********************HURRAY********************

CARTESIAN COORDINATES (ANGSTROEM)
---------------------------------
  O      0.000013    0.891237   -0.000680
  C      0.000058   -0.317334    0.000926
  C      1.184356   -1.231025    0.008144
  C      2.518970   -0.900608    0.014628
  C      3.493101   -1.936294    0.023753
  C      4.902007   -1.680221    0.030095
  C      5.511347   -0.432258    0.008588
  C      6.914976   -0.178196    0.018479
  C      7.384474    1.162163   -0.035000
  C      8.731008    1.463234   -0.035590
  C      9.688302    0.432791    0.027725
  N     11.057458    0.732762    0.030616
  C     11.685508    1.659124    0.860414
  C     11.147118    2.445023    1.881721
  C     12.014765    3.276767    2.583142
  C     13.385842    3.322647    2.287637
  C     13.920734    2.520856    1.284919
  C     13.070231    1.678260    0.564849
  C     13.283510    0.715871   -0.493733
  C     14.411336    0.307450   -1.209971
  C     14.264909   -0.642751   -2.215008
  C     13.001527   -1.173992   -2.516543
  C     11.862789   -0.782723   -1.818869
  C     12.018887    0.154600   -0.795362
  C      9.249401   -0.902383    0.088167
  C      7.901954   -1.201530    0.079853
  C      3.025565   -3.278759    0.027032
  C      1.673314   -3.603260    0.018798
  C      0.733819   -2.572472    0.008680
  C     -0.733536   -2.572540   -0.000808
  C     -1.672959   -3.603417   -0.008180
  C     -3.025234   -3.279033   -0.017232
  C     -3.492868   -1.936598   -0.017472
  C     -4.901792   -1.680649   -0.024415
  C     -5.511227   -0.432683   -0.005973
  C     -6.914876   -0.178756   -0.016521
  C     -7.384491    1.161678    0.033983
  C     -8.731050    1.462637    0.033840
  C     -9.688250    0.431972   -0.027271
  N    -11.057436    0.731796   -0.030914
  C    -11.685492    1.656449   -0.862602
  C    -11.147128    2.440136   -1.885624
  C    -12.014771    3.270446   -2.588744
  C    -13.385823    3.317041   -2.293231
  C    -13.920692    2.517417   -1.288772
  C    -13.070191    1.676299   -0.566974
  C    -13.283445    0.716166    0.493659
  C    -14.411247    0.309318    1.210829
  C    -14.264809   -0.638772    2.217856
  C    -13.001438   -1.169447    2.520427
  C    -11.862723   -0.779717    1.821852
  C    -12.018834    0.155457    0.796385
  C     -9.249231   -0.903293   -0.084780
  C     -7.901760   -1.202309   -0.075726
  C     -2.518810   -0.900823   -0.011135
  C     -1.184173   -1.231128   -0.003820
  H      2.803012    0.153687    0.014675
  H      5.539226   -2.569232    0.049677
  H      4.874876    0.456475   -0.023824
  H      6.653209    1.972187   -0.096472
  H      9.064607    2.499827   -0.109900
  H     10.086168    2.403485    2.131803
  H     11.617025    3.902849    3.385269
  H     14.037695    3.987939    2.857802
  H     14.990770    2.543260    1.065637
  H     15.391712    0.734470   -0.986182
  H     15.137547   -0.973195   -2.782393
  H     12.905323   -1.907311   -3.320652
  H     10.882621   -1.187992   -2.073663
  H      9.988094   -1.702282    0.166940
  H      7.596536   -2.247119    0.142978
  H      3.767894   -4.081348    0.035209
  H      1.359963   -4.649812    0.020705
  H     -1.359537   -4.649949   -0.007327
  H     -3.767503   -4.081696   -0.023264
  H     -5.538945   -2.569755   -0.041733
  H     -4.874822    0.456173    0.024335
  H     -6.653295    1.971894    0.093721
  H     -9.064736    2.499362    0.105860
  H    -10.086199    2.397987   -2.135695
  H    -11.617055    3.894795   -3.392232
  H    -14.037677    3.981162   -2.864760
  H    -14.990712    2.540353   -1.069464
  H    -15.391615    0.735918    0.986203
  H    -15.137429   -0.967971    2.785993
  H    -12.905220   -1.901075    3.326072
  H    -10.882564   -1.184509    2.077435
  H     -9.987862   -1.703412   -0.161881
  H     -7.596237   -2.248000   -0.136600
  H     -2.802915    0.153452   -0.013987

ORBITAL ENERGIES
----------------

  NO   OCC          E(Eh)            E(eV)
   0   2.0000     -19.212730      -522.8050
   1   2.0000     -14.452096      -393.2615
   2   2.0000     -14.452095      -393.2615
   3   2.0000     -10.328208      -281.0448
   4   2.0000     -10.295906      -280.1659
   5   2.0000     -10.295906      -280.1658
   6   2.0000     -10.278697      -279.6976
   7   2.0000     -10.278696      -279.6975
   8   2.0000     -10.278554      -279.6937
   9   2.0000     -10.278554      -279.6937
  10   2.0000     -10.266125      -279.3555
  11   2.0000     -10.266118      -279.3553
  12   2.0000     -10.265167      -279.3294
  13   2.0000     -10.265053      -279.3263
  14   2.0000     -10.261848      -279.2391
  15   2.0000     -10.261847      -279.2391
  16   2.0000     -10.261355      -279.2257
  17   2.0000     -10.261352      -279.2256
  18   2.0000     -10.260232      -279.1951
  19   2.0000     -10.260213      -279.1946
  20   2.0000     -10.259669      -279.1798
  21   2.0000     -10.259567      -279.1770
  22   2.0000     -10.257396      -279.1179
  23   2.0000     -10.257394      -279.1179
  24   2.0000     -10.256856      -279.1032
  25   2.0000     -10.256855      -279.1032
  26   2.0000     -10.256518      -279.0940
  27   2.0000     -10.256518      -279.0940
  28   2.0000     -10.255673      -279.0710
  29   2.0000     -10.255673      -279.0710
  30   2.0000     -10.255282      -279.0604
  31   2.0000     -10.255282      -279.0604
  32   2.0000     -10.254339      -279.0347
  33   2.0000     -10.254338      -279.0347
  34   2.0000     -10.250859      -278.9401
  35   2.0000     -10.250836      -278.9394
  36   2.0000     -10.242219      -278.7049
  37   2.0000     -10.242219      -278.7049
  38   2.0000     -10.242104      -278.7018
  39   2.0000     -10.242104      -278.7018
  40   2.0000     -10.241994      -278.6988
  41   2.0000     -10.241994      -278.6988
  42   2.0000     -10.241806      -278.6937
  43   2.0000     -10.241805      -278.6937
  44   2.0000     -10.241254      -278.6787
  45   2.0000     -10.241253      -278.6787
  46   2.0000     -10.241011      -278.6721
  47   2.0000     -10.241010      -278.6721
  48   2.0000     -10.240687      -278.6632
  49   2.0000     -10.240686      -278.6632
  50   2.0000     -10.240391      -278.6552
  51   2.0000     -10.240391      -278.6552
  52   2.0000     -10.234736      -278.5013
  53   2.0000     -10.234736      -278.5013
  54   2.0000     -10.234503      -278.4950
  55   2.0000     -10.234503      -278.4950
  56   2.0000      -1.069327       -29.0979
  57   2.0000      -1.025730       -27.9115
  58   2.0000      -1.025730       -27.9115
  59   2.0000      -0.925413       -25.1818
  60   2.0000      -0.902877       -24.5685
  61   2.0000      -0.902482       -24.5578
  62   2.0000      -0.892016       -24.2730
  63   2.0000      -0.873650       -23.7732
  64   2.0000      -0.872233       -23.7347
  65   2.0000      -0.871153       -23.7053
  66   2.0000      -0.871150       -23.7052
  67   2.0000      -0.853955       -23.2373
  68   2.0000      -0.830862       -22.6089
  69   2.0000      -0.822795       -22.3894
  70   2.0000      -0.806753       -21.9529
  71   2.0000      -0.803894       -21.8751
  72   2.0000      -0.791601       -21.5406
  73   2.0000      -0.784994       -21.3608
  74   2.0000      -0.784730       -21.3536
  75   2.0000      -0.782535       -21.2939
  76   2.0000      -0.779261       -21.2048
  77   2.0000      -0.770749       -20.9731
  78   2.0000      -0.770651       -20.9705
  79   2.0000      -0.763365       -20.7722
  80   2.0000      -0.752653       -20.4807
  81   2.0000      -0.737577       -20.0705
  82   2.0000      -0.737566       -20.0702
  83   2.0000      -0.734636       -19.9905
  84   2.0000      -0.716884       -19.5074
  85   2.0000      -0.699633       -19.0380
  86   2.0000      -0.687438       -18.7061
  87   2.0000      -0.674809       -18.3625
  88   2.0000      -0.659297       -17.9404
  89   2.0000      -0.651911       -17.7394
  90   2.0000      -0.649671       -17.6784
  91   2.0000      -0.643740       -17.5171
  92   2.0000      -0.636775       -17.3275
  93   2.0000      -0.627609       -17.0781
  94   2.0000      -0.623340       -16.9619
  95   2.0000      -0.621495       -16.9117
  96   2.0000      -0.619811       -16.8659
  97   2.0000      -0.606124       -16.4935
  98   2.0000      -0.601682       -16.3726
  99   2.0000      -0.593649       -16.1540
 100   2.0000      -0.593523       -16.1506
 101   2.0000      -0.591731       -16.1018
 102   2.0000      -0.584939       -15.9170
 103   2.0000      -0.571489       -15.5510
 104   2.0000      -0.561133       -15.2692
 105   2.0000      -0.560832       -15.2610
 106   2.0000      -0.539463       -14.6795
 107   2.0000      -0.538669       -14.6579
 108   2.0000      -0.537310       -14.6210
 109   2.0000      -0.532641       -14.4939
 110   2.0000      -0.528797       -14.3893
 111   2.0000      -0.525853       -14.3092
 112   2.0000      -0.519367       -14.1327
 113   2.0000      -0.509649       -13.8683
 114   2.0000      -0.509127       -13.8541
 115   2.0000      -0.491523       -13.3750
 116   2.0000      -0.491513       -13.3747
 117   2.0000      -0.483699       -13.1621
 118   2.0000      -0.482995       -13.1430
 119   2.0000      -0.476830       -12.9752
 120   2.0000      -0.473076       -12.8730
 121   2.0000      -0.472677       -12.8622
 122   2.0000      -0.471327       -12.8255
 123   2.0000      -0.469481       -12.7752
 124   2.0000      -0.467445       -12.7198
 125   2.0000      -0.462622       -12.5886
 126   2.0000      -0.461431       -12.5562
 127   2.0000      -0.457792       -12.4572
 128   2.0000      -0.457534       -12.4501
 129   2.0000      -0.454808       -12.3760
 130   2.0000      -0.454510       -12.3679
 131   2.0000      -0.453445       -12.3389
 132   2.0000      -0.453023       -12.3274
 133   2.0000      -0.450864       -12.2686
 134   2.0000      -0.447082       -12.1657
 135   2.0000      -0.445107       -12.1120
 136   2.0000      -0.444205       -12.0874
 137   2.0000      -0.443985       -12.0815
 138   2.0000      -0.441159       -12.0045
 139   2.0000      -0.437168       -11.8960
 140   2.0000      -0.433371       -11.7926
 141   2.0000      -0.432954       -11.7813
 142   2.0000      -0.418817       -11.3966
 143   2.0000      -0.412742       -11.2313
 144   2.0000      -0.411335       -11.1930
 145   2.0000      -0.409374       -11.1396
 146   2.0000      -0.407373       -11.0852
 147   2.0000      -0.400256       -10.8915
 148   2.0000      -0.399307       -10.8657
 149   2.0000      -0.398276       -10.8376
 150   2.0000      -0.389256       -10.5922
 151   2.0000      -0.387883       -10.5548
 152   2.0000      -0.381938       -10.3931
 153   2.0000      -0.381825       -10.3900
 154   2.0000      -0.380481       -10.3534
 155   2.0000      -0.380409       -10.3514
 156   2.0000      -0.375837       -10.2270
 157   2.0000      -0.375768       -10.2252
 158   2.0000      -0.374485       -10.1903
 159   2.0000      -0.374045       -10.1783
 160   2.0000      -0.365219        -9.9381
 161   2.0000      -0.363175        -9.8825
 162   2.0000      -0.360166        -9.8006
 163   2.0000      -0.358332        -9.7507
 164   2.0000      -0.354957        -9.6589
 165   2.0000      -0.353200        -9.6111
 166   2.0000      -0.353194        -9.6109
 167   2.0000      -0.350513        -9.5380
 168   2.0000      -0.345272        -9.3953
 169   2.0000      -0.328684        -8.9440
 170   2.0000      -0.308774        -8.4022
 171   2.0000      -0.300664        -8.1815
 172   2.0000      -0.299289        -8.1441
 173   2.0000      -0.290519        -7.9054
 174   2.0000      -0.286881        -7.8064
 175   2.0000      -0.286731        -7.8024
 176   2.0000      -0.286328        -7.7914
 177   2.0000      -0.280342        -7.6285
 178   2.0000      -0.274274        -7.4634
 179   2.0000      -0.272111        -7.4045
 180   2.0000      -0.272110        -7.4045
 181   2.0000      -0.243757        -6.6330
 182   2.0000      -0.232695        -6.3319
 183   2.0000      -0.232694        -6.3319
 184   2.0000      -0.227490        -6.1903
 185   2.0000      -0.213371        -5.8061
 186   2.0000      -0.203061        -5.5256
 187   0.0000      -0.099510        -2.7078
 188   0.0000      -0.079097        -2.1523
 189   0.0000      -0.067176        -1.8279
 190   0.0000      -0.034680        -0.9437
 191   0.0000      -0.034678        -0.9436

Total SCF time: 0 days 0 hours 1 min 54 sec

-----------------------------------------------------------------------------
         ABSORPTION SPECTRUM VIA TRANSITION ELECTRIC DIPOLE MOMENTS
-----------------------------------------------------------------------------
State   Energy    Wavelength  fosc         T2        TX        TY        TZ
        (cm-1)      (nm)                 (au**2)    (au)      (au)      (au)
-----------------------------------------------------------------------------
   1   19192.0    521.0   1.323451260  22.70192  -4.76464  -0.00016  -0.01229
   2   22264.0    449.2   0.034828875   0.51501   0.00003   0.71764  -0.00088
   3   22631.4    441.9   1.392941271  20.26269   4.50139   0.00014   0.01446
   4   25369.3    394.2   0.504380667   6.54525   2.55836   0.00008   0.00771
   5   26030.2    384.2   0.023606473   0.29856  -0.00131   0.54640  -0.00038
   6   13419.2    745.2   spin forbidden (mult=3)
   7   16544.0    604.4   spin forbidden (mult=3)
   8   18932.2    528.2   spin forbidden (mult=3)
   9   22238.6    449.7   spin forbidden (mult=3)
  10   22762.9    439.3   spin forbidden (mult=3)

Dispersion correction           -0.121839149
FINAL SINGLE POINT ENERGY     -2220.800440076366

DIPOLE MOMENT
-------------
                                X             Y             Z
Electronic contribution:     -0.00015       0.09323      -0.00111
Nuclear contribution   :      0.00014      -1.07094       0.00249
                        -----------------------------------------
Total Dipole Moment    :     -0.00001      -0.97771       0.00138
                        -----------------------------------------
Magnitude (a.u.)       :      0.97771
Magnitude (Debye)      :      2.48514

Rotational constants in cm-1:     0.005084     0.000248     0.000243
Rotational constants in MHz :   152.426287     7.437584     7.284486

                             ****ORCA TERMINATED NORMALLY****
TOTAL RUN TIME: 0 days 0 hours 32 minutes 52 seconds 8 msec
