                         Program Version 5.0.3 -  RELEASE  -
|  1> ! PBE0 def2-SVP D3BJ def2/J RIJCOSX tightSCF noautostart miniprint nopop defgrid3 Opt
|  2> %maxcore    4000
|  3> %pal    nprocs  40  end
|  4> %geom	Convergence	loose
|  5> 	MaxIter	5
|  6> end
|  7> %tddft  PrintLevel  3
|  8> 	IRootMult	Triplet
|  9> 	NRoots	5
| 10> 	IRoot	3
| 11> 	TDA	True
| 12>         MaxDim  10
| 13> end
| 14> * xyzfile 0 1 T1_XTB_OPT_XYZ.xyz
| 15>
| 16>
| 17>                          ****END OF INPUT****
Dispersion correction           -0.122496831
FINAL SINGLE POINT ENERGY     -2220.781772251733
Dispersion correction                    ... done
Dispersion correction           -0.122000450
FINAL SINGLE POINT ENERGY     -2220.792305652789
Dispersion correction                    ... done
Dispersion correction           -0.121930410
FINAL SINGLE POINT ENERGY     -2220.793113135413
Dispersion correction                    ... done
Dispersion correction           -0.121943063
FINAL SINGLE POINT ENERGY     -2220.793265081049
Dispersion correction                    ... done
                    ***********************HURRAY********************

CARTESIAN COORDINATES (ANGSTROEM)
---------------------------------
  O      0.000014    0.843351   -0.000700
  C      0.000060   -0.384159    0.000899
  C      1.169160   -1.284201    0.009559
  C      2.519142   -0.972414    0.017870
  C      3.469502   -2.027668    0.027507
  C      4.890298   -1.802823    0.034310
  C      5.483635   -0.565088    0.016920
  C      6.891910   -0.275790    0.023990
  C      7.313883    1.072766   -0.027862
  C      8.653596    1.416261   -0.031971
  C      9.637045    0.415994    0.028664
  N     10.996028    0.757182    0.030488
  C     11.594376    1.710958    0.853082
  C     11.033490    2.486210    1.870295
  C     11.875285    3.350652    2.563689
  C     13.243291    3.439669    2.263909
  C     13.801039    2.649116    1.265211
  C     12.976545    1.773686    0.553460
  C     13.219499    0.813279   -0.500267
  C     14.359198    0.441498   -1.218199
  C     14.243656   -0.517208   -2.218743
  C     12.998839   -1.093715   -2.514149
  C     11.849110   -0.739963   -1.814372
  C     11.974890    0.206531   -0.795345
  C      9.239793   -0.930880    0.088551
  C      7.899047   -1.268665    0.081352
  C      3.007969   -3.368970    0.029815
  C      1.652487   -3.681332    0.019909
  C      0.726323   -2.633695    0.009325
  C     -0.726040   -2.633763   -0.001685
  C     -1.652131   -3.681488   -0.009535
  C     -3.007636   -3.369246   -0.020198
  C     -3.469265   -2.027975   -0.021325
  C     -4.890077   -1.803255   -0.028591
  C     -5.483507   -0.565526   -0.014174
  C     -6.891806   -0.276358   -0.021877
  C     -7.313897    1.072267    0.027108
  C     -8.653639    1.415657    0.030459
  C     -9.636998    0.415176   -0.028095
  N    -10.996016    0.756221   -0.030720
  C    -11.594373    1.708367   -0.855184
  C    -11.033522    2.481482   -1.874044
  C    -11.875315    3.344561   -2.569134
  C    -13.243287    3.434294   -2.269408
  C    -13.801003    2.645833   -1.269040
  C    -12.976509    1.771809   -0.555563
  C    -13.219430    0.813573    0.500146
  C    -14.359095    0.443325    1.218922
  C    -14.243537   -0.513352    2.221404
  C    -12.998734   -1.089337    2.517881
  C    -11.849038   -0.737088    1.817291
  C    -11.974835    0.207342    0.796353
  C     -9.239627   -0.931787   -0.085129
  C     -7.898854   -1.269443   -0.077171
  C     -2.518979   -0.972633   -0.014481
  C     -1.168976   -1.284306   -0.005409
  H      2.817099    0.076096    0.018658
  H      5.519444   -2.697554    0.050561
  H      4.833458    0.313519   -0.009224
  H      6.557507    1.859798   -0.085035
  H      8.955722    2.462342   -0.105478
  H      9.975146    2.413382    2.124210
  H     11.459006    3.969128    3.362309
  H     13.874335    4.130335    2.827266
  H     14.868966    2.705496    1.041773
  H     15.324380    0.904056   -0.999015
  H     15.125670   -0.818956   -2.787597
  H     12.925889   -1.833147   -3.315093
  H     10.883547   -1.180972   -2.065593
  H     10.001870   -1.708530    0.165129
  H      7.621405   -2.322552    0.142076
  H      3.748126   -4.172894    0.038359
  H      1.323860   -4.722959    0.020757
  H     -1.323436   -4.723093   -0.007698
  H     -3.747734   -4.173243   -0.026633
  H     -5.519156   -2.698071   -0.042576
  H     -4.833394    0.313190    0.009858
  H     -6.557588    1.859482    0.082636
  H     -8.955854    2.461865    0.101748
  H     -9.975208    2.408041   -2.127906
  H    -11.459068    3.961365   -3.369063
  H    -13.874333    4.123847   -2.834124
  H    -14.868906    2.702748   -1.045626
  H    -15.324266    0.905495    0.998872
  H    -15.125525   -0.813886    2.790940
  H    -12.925766   -1.827143    3.320320
  H    -10.883486   -1.177653    2.069331
  H    -10.001642   -1.709652   -0.160118
  H     -7.621106   -2.323426   -0.135702
  H     -2.816997    0.075855   -0.017992

ORBITAL ENERGIES
----------------

  NO   OCC          E(Eh)            E(eV)
   0   2.0000     -19.211579      -522.7736
   1   2.0000     -14.451765      -393.2525
   2   2.0000     -14.451764      -393.2525
   3   2.0000     -10.327469      -281.0247
   4   2.0000     -10.295196      -280.1465
   5   2.0000     -10.295196      -280.1465
   6   2.0000     -10.278649      -279.6962
   7   2.0000     -10.278647      -279.6962
   8   2.0000     -10.278529      -279.6930
   9   2.0000     -10.278529      -279.6930
  10   2.0000     -10.266041      -279.3532
  11   2.0000     -10.266034      -279.3530
  12   2.0000     -10.264471      -279.3105
  13   2.0000     -10.264320      -279.3064
  14   2.0000     -10.262327      -279.2521
  15   2.0000     -10.262303      -279.2515
  16   2.0000     -10.261710      -279.2353
  17   2.0000     -10.261705      -279.2352
  18   2.0000     -10.260765      -279.2096
  19   2.0000     -10.260764      -279.2096
  20   2.0000     -10.260262      -279.1959
  21   2.0000     -10.260160      -279.1932
  22   2.0000     -10.256083      -279.0822
  23   2.0000     -10.256082      -279.0822
  24   2.0000     -10.255444      -279.0648
  25   2.0000     -10.255442      -279.0648
  26   2.0000     -10.255113      -279.0558
  27   2.0000     -10.255113      -279.0558
  28   2.0000     -10.254963      -279.0517
  29   2.0000     -10.254963      -279.0517
  30   2.0000     -10.254764      -279.0463
  31   2.0000     -10.254764      -279.0463
  32   2.0000     -10.253867      -279.0219
  33   2.0000     -10.253867      -279.0219
  34   2.0000     -10.252224      -278.9772
  35   2.0000     -10.252204      -278.9766
  36   2.0000     -10.242133      -278.7026
  37   2.0000     -10.242133      -278.7026
  38   2.0000     -10.242041      -278.7001
  39   2.0000     -10.242041      -278.7001
  40   2.0000     -10.241909      -278.6965
  41   2.0000     -10.241909      -278.6965
  42   2.0000     -10.241775      -278.6929
  43   2.0000     -10.241774      -278.6929
  44   2.0000     -10.241116      -278.6749
  45   2.0000     -10.241115      -278.6749
  46   2.0000     -10.240880      -278.6685
  47   2.0000     -10.240880      -278.6685
  48   2.0000     -10.240622      -278.6615
  49   2.0000     -10.240622      -278.6615
  50   2.0000     -10.240331      -278.6536
  51   2.0000     -10.240330      -278.6536
  52   2.0000     -10.234632      -278.4985
  53   2.0000     -10.234632      -278.4985
  54   2.0000     -10.234419      -278.4927
  55   2.0000     -10.234418      -278.4927
  56   2.0000      -1.058611       -28.8063
  57   2.0000      -1.025279       -27.8993
  58   2.0000      -1.025279       -27.8993
  59   2.0000      -0.927153       -25.2291
  60   2.0000      -0.903386       -24.5824
  61   2.0000      -0.903003       -24.5720
  62   2.0000      -0.891754       -24.2659
  63   2.0000      -0.873928       -23.7808
  64   2.0000      -0.872260       -23.7354
  65   2.0000      -0.871115       -23.7043
  66   2.0000      -0.871113       -23.7042
  67   2.0000      -0.856137       -23.2967
  68   2.0000      -0.830870       -22.6091
  69   2.0000      -0.823236       -22.4014
  70   2.0000      -0.806960       -21.9585
  71   2.0000      -0.805509       -21.9190
  72   2.0000      -0.791460       -21.5367
  73   2.0000      -0.784582       -21.3496
  74   2.0000      -0.784375       -21.3439
  75   2.0000      -0.782209       -21.2850
  76   2.0000      -0.779696       -21.2166
  77   2.0000      -0.770532       -20.9672
  78   2.0000      -0.770437       -20.9647
  79   2.0000      -0.763985       -20.7891
  80   2.0000      -0.751786       -20.4571
  81   2.0000      -0.737486       -20.0680
  82   2.0000      -0.737473       -20.0677
  83   2.0000      -0.735079       -20.0025
  84   2.0000      -0.717257       -19.5175
  85   2.0000      -0.702964       -19.1286
  86   2.0000      -0.687729       -18.7141
  87   2.0000      -0.674081       -18.3427
  88   2.0000      -0.659829       -17.9549
  89   2.0000      -0.652089       -17.7442
  90   2.0000      -0.650237       -17.6938
  91   2.0000      -0.643235       -17.5033
  92   2.0000      -0.637189       -17.3388
  93   2.0000      -0.629110       -17.1190
  94   2.0000      -0.623208       -16.9583
  95   2.0000      -0.621824       -16.9207
  96   2.0000      -0.618999       -16.8438
  97   2.0000      -0.605780       -16.4841
  98   2.0000      -0.601300       -16.3622
  99   2.0000      -0.593620       -16.1532
 100   2.0000      -0.593487       -16.1496
 101   2.0000      -0.591731       -16.1018
 102   2.0000      -0.584015       -15.8918
 103   2.0000      -0.572267       -15.5722
 104   2.0000      -0.561039       -15.2666
 105   2.0000      -0.560623       -15.2553
 106   2.0000      -0.540816       -14.7164
 107   2.0000      -0.539370       -14.6770
 108   2.0000      -0.537214       -14.6183
 109   2.0000      -0.533244       -14.5103
 110   2.0000      -0.528833       -14.3903
 111   2.0000      -0.525741       -14.3061
 112   2.0000      -0.519392       -14.1334
 113   2.0000      -0.508947       -13.8491
 114   2.0000      -0.508769       -13.8443
 115   2.0000      -0.492424       -13.3995
 116   2.0000      -0.491478       -13.3738
 117   2.0000      -0.483629       -13.1602
 118   2.0000      -0.482970       -13.1423
 119   2.0000      -0.478895       -13.0314
 120   2.0000      -0.473051       -12.8724
 121   2.0000      -0.472637       -12.8611
 122   2.0000      -0.471563       -12.8319
 123   2.0000      -0.469511       -12.7760
 124   2.0000      -0.467925       -12.7329
 125   2.0000      -0.463809       -12.6209
 126   2.0000      -0.461578       -12.5602
 127   2.0000      -0.457531       -12.4501
 128   2.0000      -0.457235       -12.4420
 129   2.0000      -0.454754       -12.3745
 130   2.0000      -0.453708       -12.3460
 131   2.0000      -0.453228       -12.3330
 132   2.0000      -0.452785       -12.3209
 133   2.0000      -0.450605       -12.2616
 134   2.0000      -0.446091       -12.1387
 135   2.0000      -0.444356       -12.0916
 136   2.0000      -0.444222       -12.0879
 137   2.0000      -0.443399       -12.0655
 138   2.0000      -0.440605       -11.9895
 139   2.0000      -0.437093       -11.8939
 140   2.0000      -0.433120       -11.7858
 141   2.0000      -0.432594       -11.7715
 142   2.0000      -0.417117       -11.3503
 143   2.0000      -0.413080       -11.2405
 144   2.0000      -0.411578       -11.1996
 145   2.0000      -0.409410       -11.1406
 146   2.0000      -0.407159       -11.0794
 147   2.0000      -0.399754       -10.8779
 148   2.0000      -0.398888       -10.8543
 149   2.0000      -0.395486       -10.7617
 150   2.0000      -0.388402       -10.5690
 151   2.0000      -0.387287       -10.5386
 152   2.0000      -0.381916       -10.3924
 153   2.0000      -0.381822       -10.3899
 154   2.0000      -0.380165       -10.3448
 155   2.0000      -0.380005       -10.3405
 156   2.0000      -0.375902       -10.2288
 157   2.0000      -0.375807       -10.2262
 158   2.0000      -0.374470       -10.1898
 159   2.0000      -0.373825       -10.1723
 160   2.0000      -0.366082        -9.9616
 161   2.0000      -0.363924        -9.9029
 162   2.0000      -0.360698        -9.8151
 163   2.0000      -0.358344        -9.7510
 164   2.0000      -0.355116        -9.6632
 165   2.0000      -0.353156        -9.6099
 166   2.0000      -0.353149        -9.6097
 167   2.0000      -0.350805        -9.5459
 168   2.0000      -0.345558        -9.4031
 169   2.0000      -0.328542        -8.9401
 170   2.0000      -0.308644        -8.3986
 171   2.0000      -0.300575        -8.1791
 172   2.0000      -0.299147        -8.1402
 173   2.0000      -0.290264        -7.8985
 174   2.0000      -0.286419        -7.7938
 175   2.0000      -0.286062        -7.7842
 176   2.0000      -0.286035        -7.7834
 177   2.0000      -0.279936        -7.6175
 178   2.0000      -0.275453        -7.4955
 179   2.0000      -0.272072        -7.4035
 180   2.0000      -0.272071        -7.4034
 181   2.0000      -0.245329        -6.6758
 182   2.0000      -0.232611        -6.3297
 183   2.0000      -0.232611        -6.3297
 184   2.0000      -0.227276        -6.1845
 185   2.0000      -0.213780        -5.8173
 186   2.0000      -0.203902        -5.5484
 187   0.0000      -0.100781        -2.7424
 188   0.0000      -0.080990        -2.2039
 189   0.0000      -0.063846        -1.7373
 190   0.0000      -0.034649        -0.9428
 191   0.0000      -0.034645        -0.9427

Total SCF time: 0 days 0 hours 1 min 54 sec

-----------------------------------------------------------------------------
         ABSORPTION SPECTRUM VIA TRANSITION ELECTRIC DIPOLE MOMENTS
-----------------------------------------------------------------------------
State   Energy    Wavelength  fosc         T2        TX        TY        TZ
        (cm-1)      (nm)                 (au**2)    (au)      (au)      (au)
-----------------------------------------------------------------------------
   1   18564.2    538.7   0.732803468  12.99529  -3.60489  -0.00012  -0.00946
   2   22003.7    454.5   0.029368111   0.43940  -0.00001  -0.66287   0.00076
   3   22646.1    441.6   1.758212229  25.55951  -5.05562  -0.00016  -0.01510
   4   24815.4    403.0   0.484173429   6.42325  -2.53440  -0.00009  -0.00915
   5   25919.3    385.8   0.025640819   0.32568  -0.00005   0.57068  -0.00105
   6   13646.4    732.8   spin forbidden (mult=3)
   7   17439.1    573.4   spin forbidden (mult=3)
   8   18345.4    545.1   spin forbidden (mult=3)
   9   21836.6    457.9   spin forbidden (mult=3)
  10   22713.9    440.3   spin forbidden (mult=3)

Dispersion correction           -0.121957098
FINAL SINGLE POINT ENERGY     -2220.793295792981

DIPOLE MOMENT
-------------
                                X             Y             Z
Electronic contribution:     -0.00008      -0.31757      -0.00073
Nuclear contribution   :      0.00015      -0.95042       0.00255
                        -----------------------------------------
Total Dipole Moment    :      0.00007      -1.26799       0.00182
                        -----------------------------------------
Magnitude (a.u.)       :      1.26799
Magnitude (Debye)      :      3.22299

Rotational constants in cm-1:     0.004903     0.000251     0.000245
Rotational constants in MHz :   146.978598     7.520137     7.348690

                             ****ORCA TERMINATED NORMALLY****
TOTAL RUN TIME: 0 days 0 hours 32 minutes 26 seconds 495 msec
