                         Program Version 5.0.3 -  RELEASE  -
|  1> ! PBE0 def2-SVP D3BJ def2/J RIJCOSX tightSCF noautostart miniprint nopop defgrid3 Opt
|  2> %maxcore    4000
|  3> %pal    nprocs  40  end
|  4> %geom	Convergence	loose
|  5> 	MaxIter	5
|  6> end
|  7> %tddft  PrintLevel  3
|  8> 	IRootMult	Triplet
|  9> 	NRoots	5
| 10> 	IRoot	4
| 11> 	TDA	True
| 12>         MaxDim  10
| 13> end
| 14> * xyzfile 0 1 T1_XTB_OPT_XYZ.xyz
| 15>
| 16>
| 17>                          ****END OF INPUT****

ORBITAL ENERGIES
----------------

  NO   OCC          E(Eh)            E(eV)
   0   2.0000     -19.212074      -522.7871
   1   2.0000     -14.451427      -393.2433
   2   2.0000     -14.451423      -393.2432
   3   2.0000     -10.326071      -280.9867
   4   2.0000     -10.293049      -280.0881
   5   2.0000     -10.293046      -280.0880
   6   2.0000     -10.275699      -279.6160
   7   2.0000     -10.275691      -279.6158
   8   2.0000     -10.275579      -279.6127
   9   2.0000     -10.275575      -279.6126
  10   2.0000     -10.262953      -279.2691
  11   2.0000     -10.262946      -279.2689
  12   2.0000     -10.262678      -279.2617
  13   2.0000     -10.262375      -279.2534
  14   2.0000     -10.257799      -279.1289
  15   2.0000     -10.257792      -279.1287
  16   2.0000     -10.257427      -279.1188
  17   2.0000     -10.257424      -279.1187
  18   2.0000     -10.257065      -279.1089
  19   2.0000     -10.257044      -279.1083
  20   2.0000     -10.256450      -279.0922
  21   2.0000     -10.256346      -279.0894
  22   2.0000     -10.252379      -278.9814
  23   2.0000     -10.252372      -278.9812
  24   2.0000     -10.251999      -278.9711
  25   2.0000     -10.251997      -278.9710
  26   2.0000     -10.251633      -278.9611
  27   2.0000     -10.251627      -278.9609
  28   2.0000     -10.251515      -278.9579
  29   2.0000     -10.251512      -278.9578
  30   2.0000     -10.250912      -278.9415
  31   2.0000     -10.250905      -278.9413
  32   2.0000     -10.250531      -278.9311
  33   2.0000     -10.250527      -278.9310
  34   2.0000     -10.250019      -278.9172
  35   2.0000     -10.249994      -278.9165
  36   2.0000     -10.238180      -278.5950
  37   2.0000     -10.238174      -278.5949
  38   2.0000     -10.238102      -278.5929
  39   2.0000     -10.238095      -278.5927
  40   2.0000     -10.237977      -278.5895
  41   2.0000     -10.237976      -278.5895
  42   2.0000     -10.237785      -278.5843
  43   2.0000     -10.237778      -278.5841
  44   2.0000     -10.237605      -278.5794
  45   2.0000     -10.237603      -278.5793
  46   2.0000     -10.237397      -278.5737
  47   2.0000     -10.237396      -278.5737
  48   2.0000     -10.236227      -278.5419
  49   2.0000     -10.236222      -278.5418
  50   2.0000     -10.235900      -278.5330
  51   2.0000     -10.235896      -278.5329
  52   2.0000     -10.230282      -278.3801
  53   2.0000     -10.230278      -278.3800
  54   2.0000     -10.230018      -278.3730
  55   2.0000     -10.230017      -278.3729
  56   2.0000      -1.061355       -28.8809
  57   2.0000      -1.031806       -28.0769
  58   2.0000      -1.031806       -28.0769
  59   2.0000      -0.928947       -25.2779
  60   2.0000      -0.907537       -24.6953
  61   2.0000      -0.907205       -24.6863
  62   2.0000      -0.893816       -24.3220
  63   2.0000      -0.877937       -23.8899
  64   2.0000      -0.876275       -23.8447
  65   2.0000      -0.875125       -23.8133
  66   2.0000      -0.875121       -23.8133
  67   2.0000      -0.858884       -23.3714
  68   2.0000      -0.834457       -22.7067
  69   2.0000      -0.826697       -22.4956
  70   2.0000      -0.809943       -22.0397
  71   2.0000      -0.809070       -22.0159
  72   2.0000      -0.795306       -21.6414
  73   2.0000      -0.788063       -21.4443
  74   2.0000      -0.787913       -21.4402
  75   2.0000      -0.786305       -21.3965
  76   2.0000      -0.782054       -21.2808
  77   2.0000      -0.773622       -21.0513
  78   2.0000      -0.773497       -21.0479
  79   2.0000      -0.767485       -20.8843
  80   2.0000      -0.753963       -20.5164
  81   2.0000      -0.739508       -20.1230
  82   2.0000      -0.739474       -20.1221
  83   2.0000      -0.738414       -20.0933
  84   2.0000      -0.718037       -19.5388
  85   2.0000      -0.703839       -19.1524
  86   2.0000      -0.693777       -18.8786
  87   2.0000      -0.676426       -18.4065
  88   2.0000      -0.663677       -18.0596
  89   2.0000      -0.655284       -17.8312
  90   2.0000      -0.653710       -17.7884
  91   2.0000      -0.645759       -17.5720
  92   2.0000      -0.639752       -17.4085
  93   2.0000      -0.629421       -17.1274
  94   2.0000      -0.625985       -17.0339
  95   2.0000      -0.623272       -16.9601
  96   2.0000      -0.621662       -16.9163
  97   2.0000      -0.608133       -16.5481
  98   2.0000      -0.603898       -16.4329
  99   2.0000      -0.595611       -16.2074
 100   2.0000      -0.595245       -16.1974
 101   2.0000      -0.594518       -16.1777
 102   2.0000      -0.586681       -15.9644
 103   2.0000      -0.574094       -15.6219
 104   2.0000      -0.565089       -15.3768
 105   2.0000      -0.564631       -15.3644
 106   2.0000      -0.545073       -14.8322
 107   2.0000      -0.542480       -14.7616
 108   2.0000      -0.540244       -14.7008
 109   2.0000      -0.535959       -14.5842
 110   2.0000      -0.531565       -14.4646
 111   2.0000      -0.528585       -14.3835
 112   2.0000      -0.521998       -14.2043
 113   2.0000      -0.511844       -13.9280
 114   2.0000      -0.510837       -13.9006
 115   2.0000      -0.493636       -13.4325
 116   2.0000      -0.493331       -13.4242
 117   2.0000      -0.485956       -13.2235
 118   2.0000      -0.485110       -13.2005
 119   2.0000      -0.477967       -13.0061
 120   2.0000      -0.475284       -12.9331
 121   2.0000      -0.474798       -12.9199
 122   2.0000      -0.473085       -12.8733
 123   2.0000      -0.472085       -12.8461
 124   2.0000      -0.470009       -12.7896
 125   2.0000      -0.464846       -12.6491
 126   2.0000      -0.464582       -12.6419
 127   2.0000      -0.460470       -12.5300
 128   2.0000      -0.458677       -12.4812
 129   2.0000      -0.457351       -12.4452
 130   2.0000      -0.456536       -12.4230
 131   2.0000      -0.455802       -12.4030
 132   2.0000      -0.455266       -12.3884
 133   2.0000      -0.452832       -12.3222
 134   2.0000      -0.448257       -12.1977
 135   2.0000      -0.445936       -12.1345
 136   2.0000      -0.445762       -12.1298
 137   2.0000      -0.444510       -12.0957
 138   2.0000      -0.442775       -12.0485
 139   2.0000      -0.438752       -11.9391
 140   2.0000      -0.434278       -11.8173
 141   2.0000      -0.433892       -11.8068
 142   2.0000      -0.420964       -11.4550
 143   2.0000      -0.414704       -11.2847
 144   2.0000      -0.413192       -11.2435
 145   2.0000      -0.412100       -11.2138
 146   2.0000      -0.407197       -11.0804
 147   2.0000      -0.401565       -10.9271
 148   2.0000      -0.400871       -10.9083
 149   2.0000      -0.397602       -10.8193
 150   2.0000      -0.390050       -10.6138
 151   2.0000      -0.388863       -10.5815
 152   2.0000      -0.382643       -10.4123
 153   2.0000      -0.382506       -10.4085
 154   2.0000      -0.381262       -10.3747
 155   2.0000      -0.381204       -10.3731
 156   2.0000      -0.377550       -10.2737
 157   2.0000      -0.377118       -10.2619
 158   2.0000      -0.375650       -10.2219
 159   2.0000      -0.373109       -10.1528
 160   2.0000      -0.364995        -9.9320
 161   2.0000      -0.364938        -9.9305
 162   2.0000      -0.360695        -9.8150
 163   2.0000      -0.359438        -9.7808
 164   2.0000      -0.355785        -9.6814
 165   2.0000      -0.353075        -9.6077
 166   2.0000      -0.353058        -9.6072
 167   2.0000      -0.351936        -9.5767
 168   2.0000      -0.347690        -9.4611
 169   2.0000      -0.329830        -8.9751
 170   2.0000      -0.309893        -8.4326
 171   2.0000      -0.302063        -8.2195
 172   2.0000      -0.300637        -8.1808
 173   2.0000      -0.293204        -7.9785
 174   2.0000      -0.289750        -7.8845
 175   2.0000      -0.287403        -7.8206
 176   2.0000      -0.287356        -7.8193
 177   2.0000      -0.279193        -7.5972
 178   2.0000      -0.274569        -7.4714
 179   2.0000      -0.273229        -7.4349
 180   2.0000      -0.273228        -7.4349
 181   2.0000      -0.246145        -6.6979
 182   2.0000      -0.232406        -6.3241
 183   2.0000      -0.232405        -6.3241
 184   2.0000      -0.226013        -6.1501
 185   2.0000      -0.213545        -5.8108
 186   2.0000      -0.200310        -5.4507
 187   0.0000      -0.105332        -2.8662
 188   0.0000      -0.078833        -2.1451
 189   0.0000      -0.062323        -1.6959
 190   0.0000      -0.032953        -0.8967
 191   0.0000      -0.032946        -0.8965

Total SCF time: 0 days 0 hours 2 min 50 sec

Dispersion correction           -0.122496831
FINAL SINGLE POINT ENERGY     -2220.766839694573
Dispersion correction                    ... done
Dispersion correction           -0.121904820
FINAL SINGLE POINT ENERGY     -2220.777473647296
Dispersion correction                    ... done
Dispersion correction           -0.121786579
FINAL SINGLE POINT ENERGY     -2220.783693213173
Dispersion correction                    ... done
Dispersion correction           -0.121362556
FINAL SINGLE POINT ENERGY     -2220.780364255539
Dispersion correction                    ... done

CARTESIAN COORDINATES (ANGSTROEM)
---------------------------------
  O      0.000173    0.916229   -0.000439
  C      0.000161   -0.321029    0.001227
  C      1.166218   -1.219387    0.012118
  C      2.520448   -0.897194    0.022918
  C      3.478157   -1.930435    0.033972
  C      4.907477   -1.676618    0.042724
  C      5.511516   -0.453974    0.019607
  C      6.935112   -0.195377    0.029377
  C      7.394953    1.139132   -0.037904
  C      8.746286    1.449083   -0.043831
  C      9.700384    0.424617    0.034746
  N     11.075256    0.730743    0.036120
  C     11.703814    1.627134    0.893790
  C     11.164435    2.372524    1.947475
  C     12.032601    3.186726    2.671405
  C     13.402023    3.252257    2.365494
  C     13.935941    2.489235    1.326686
  C     13.086305    1.667284    0.584114
  C     13.293185    0.742783   -0.513485
  C     14.411220    0.364480   -1.258979
  C     14.252866   -0.551925   -2.298938
  C     12.986418   -1.078123   -2.603018
  C     11.854903   -0.714543   -1.876265
  C     12.025790    0.188284   -0.821632
  C      9.270024   -0.909099    0.112171
  C      7.918099   -1.210750    0.103098
  C      3.028334   -3.275179    0.036068
  C      1.673770   -3.598726    0.024048
  C      0.730566   -2.570340    0.011265
  C     -0.730273   -2.570347   -0.002902
  C     -1.673490   -3.598751   -0.012981
  C     -3.028047   -3.275209   -0.025698
  C     -3.477855   -1.930458   -0.026991
  C     -4.907178   -1.676707   -0.036130
  C     -5.511317   -0.454062   -0.015832
  C     -6.934955   -0.195686   -0.026217
  C     -7.395038    1.138865    0.038527
  C     -8.746428    1.448593    0.043497
  C     -9.700330    0.423823   -0.033580
  N    -11.075254    0.729714   -0.036369
  C    -11.703358    1.624545   -0.895989
  C    -11.163428    2.367918   -1.950824
  C    -12.031192    3.180825   -2.676686
  C    -13.400753    3.247018   -2.371539
  C    -13.935221    2.485959   -1.331575
  C    -13.085997    1.665335   -0.587064
  C    -13.293454    0.742824    0.512100
  C    -14.411892    0.365875    1.257671
  C    -14.254123   -0.548724    2.299309
  C    -12.987858   -1.074447    2.604958
  C    -11.855945   -0.712178    1.878167
  C    -12.026238    0.188825    0.821886
  C     -9.269727   -0.909966   -0.108264
  C     -7.917755   -1.211368   -0.098245
  C     -2.520139   -0.897202   -0.018779
  C     -1.165912   -1.219393   -0.007257
  H      2.808567    0.156274    0.024104
  H      5.539661   -2.571632    0.065852
  H      4.877534    0.437784   -0.015259
  H      6.659622    1.945978   -0.107029
  H      9.074834    2.487219   -0.131773
  H     10.104368    2.313540    2.201247
  H     11.637016    3.781481    3.498831
  H     14.055224    3.901900    2.953176
  H     15.004812    2.529433    1.100503
  H     15.394878    0.785589   -1.034608
  H     15.119912   -0.858328   -2.889216
  H     12.881546   -1.783134   -3.431769
  H     10.870656   -1.113385   -2.128996
  H     10.010354   -1.707553    0.202633
  H      7.613566   -2.257298    0.175508
  H      3.775031   -4.074294    0.045966
  H      1.359681   -4.646117    0.024753
  H     -1.359422   -4.646146   -0.011017
  H     -3.774755   -4.074338   -0.033458
  H     -5.539312   -2.571809   -0.057027
  H     -4.877422    0.437840    0.016952
  H     -6.659861    1.945962    0.106338
  H     -9.075173    2.486834    0.129415
  H    -10.103254    2.308358   -2.203996
  H    -11.635181    3.773995   -3.505044
  H    -14.053634    3.895594   -2.960752
  H    -15.004203    2.526625   -1.106002
  H    -15.395421    0.786607    1.032029
  H    -15.121494   -0.854078    2.889652
  H    -12.883451   -1.778037    3.434975
  H    -10.871850   -1.110645    2.132090
  H    -10.009910   -1.708697   -0.197489
  H     -7.613013   -2.257984   -0.168713
  H     -2.808232    0.156270   -0.022674

-----------------------------------------------------------------------------
         ABSORPTION SPECTRUM VIA TRANSITION ELECTRIC DIPOLE MOMENTS
-----------------------------------------------------------------------------
State   Energy    Wavelength  fosc         T2        TX        TY        TZ
        (cm-1)      (nm)                 (au**2)    (au)      (au)      (au)
-----------------------------------------------------------------------------
   1   18909.4    528.8   0.633455399  11.02846   3.32090   0.00035   0.01030
   2   21749.8    459.8   0.021977471   0.33266   0.00012   0.57676  -0.00082
   3   23097.3    433.0   0.894668652  12.75198  -3.57097  -0.00009  -0.01192
   4   24551.0    407.3   1.157792239  15.52521   3.94018   0.00130   0.01461
   5   26000.4    384.6   0.000019359   0.00025   0.00148  -0.00971  -0.01219
   6   14339.9    697.4   spin forbidden (mult=3)
   7   18129.2    551.6   spin forbidden (mult=3)
   8   19068.0    524.4   spin forbidden (mult=3)
   9   20403.6    490.1   spin forbidden (mult=3)
  10   21877.1    457.1   spin forbidden (mult=3)

Dispersion correction           -0.121692423
FINAL SINGLE POINT ENERGY     -2220.785286276924
Dispersion correction                    ... done

DIPOLE MOMENT
-------------
                                X             Y             Z
Electronic contribution:     -0.00119       1.31033      -0.02339
Nuclear contribution   :     -0.00011      -1.19857       0.00370
                        -----------------------------------------
Total Dipole Moment    :     -0.00130       0.11176      -0.01969
                        -----------------------------------------
Magnitude (a.u.)       :      0.11349
Magnitude (Debye)      :      0.28847

Rotational constants in cm-1:     0.005140     0.000247     0.000243
Rotational constants in MHz :   154.085978     7.408527     7.272317

                             ****ORCA TERMINATED NORMALLY****
TOTAL RUN TIME: 0 days 0 hours 35 minutes 55 seconds 963 msec
