                         Program Version 5.0.3 -  RELEASE  -
|  1> ! PBE0 def2-SVP D3BJ def2/J RIJCOSX tightSCF noautostart miniprint nopop defgrid3
|  2> ! EnGrad
|  3> %maxcore    4000
|  4> %pal    nprocs  20  end
|  5> %tddft  PrintLevel  3
|  6> 	TDA	False
|  7> 	DoSOC	True
|  8> 	NRoots	5
|  9> 	IRoot	1
| 10>         MaxDim  10
| 11> end
| 12> * xyzfile 0 1 /gpfs/fs0/scratch/a/aspuru/malcolms/aiida/5d/c9/a95b-7623-4201-9a37-48e830d483cd/orca_freq.xyz
| 13>
| 14>
| 15>                          ****END OF INPUT****

CARTESIAN COORDINATES (ANGSTROEM)
---------------------------------
  O      0.000005    0.934230    0.003644
  C      0.000046   -0.272897    0.005653
  C      1.185787   -1.186984    0.016290
  C      2.524349   -0.859626    0.028584
  C      3.485758   -1.894256    0.040367
  C      4.922238   -1.644935    0.050895
  C      5.527226   -0.440243    0.010441
  C      6.962898   -0.183121    0.022195
  C      7.420272    1.139549   -0.102717
  C      8.775556    1.444046   -0.113422
  C      9.722392    0.425169    0.023840
  N     11.097441    0.722272    0.025466
  C     11.727113    1.650838    0.848510
  C     11.188562    2.455905    1.854568
  C     12.058362    3.290136    2.549638
  C     13.431655    3.323356    2.260597
  C     13.965058    2.507677    1.269511
  C     13.112921    1.659860    0.555727
  C     13.322429    0.689433   -0.494973
  C     14.449182    0.263938   -1.204749
  C     14.298958   -0.696629   -2.198225
  C     13.032706   -1.225563   -2.493918
  C     11.895410   -0.819555   -1.802984
  C     12.054757    0.132897   -0.794103
  C      9.285222   -0.898979    0.164079
  C      7.931292   -1.195310    0.154685
  C      3.025206   -3.224864    0.042367
  C      1.667830   -3.553227    0.028839
  C      0.735765   -2.523262    0.014867
  C     -0.735477   -2.523338   -0.000115
  C     -1.667447   -3.553409   -0.012552
  C     -3.024840   -3.225189   -0.027721
  C     -3.485501   -1.894618   -0.028894
  C     -4.921990   -1.645428   -0.041245
  C     -5.527108   -0.440721   -0.003226
  C     -6.962786   -0.183734   -0.017205
  C     -7.420462    1.139000    0.105903
  C     -8.775789    1.443384    0.114303
  C     -9.722323    0.424309   -0.023550
  N    -11.097395    0.721297   -0.027623
  C    -11.725830    1.649023   -0.852553
  C    -11.185739    2.453148   -1.858537
  C    -12.054495    3.286623   -2.555813
  C    -13.428252    3.320002   -2.269000
  C    -13.963169    2.505253   -1.277965
  C    -13.112103    1.658213   -0.561983
  C    -13.323202    0.688771    0.489311
  C    -14.451046    0.263838    1.197689
  C    -14.302322   -0.695801    2.192289
  C    -13.036497   -1.224359    2.490481
  C    -11.898137   -0.818890    1.800985
  C    -12.055960    0.132625    0.790983
  C     -9.284830   -0.899921   -0.161986
  C     -7.930888   -1.196123   -0.150294
  C     -2.524187   -0.859884   -0.018514
  C     -1.185608   -1.187103   -0.004456
  H      2.812191    0.193854    0.031818
  H      5.542665   -2.546151    0.089272
  H      4.905057    0.458869   -0.044333
  H      6.690279    1.945852   -0.211983
  H      9.110367    2.475089   -0.241075
  H     10.124687    2.428648    2.094751
  H     11.660504    3.930361    3.340540
  H     14.084981    3.991905    2.825154
  H     15.035620    2.523752    1.052044
  H     15.432313    0.685533   -0.982569
  H     15.170527   -1.039361   -2.759861
  H     12.933818   -1.970319   -3.287198
  H     10.913563   -1.226755   -2.048901
  H     10.022393   -1.693173    0.296419
  H      7.621524   -2.235391    0.273841
  H      3.765153   -4.029727    0.053595
  H      1.357743   -4.600570    0.029850
  H     -1.357270   -4.600724   -0.011380
  H     -3.764713   -4.030135   -0.037897
  H     -5.542314   -2.546744   -0.078942
  H     -4.905068    0.458508    0.051087
  H     -6.690705    1.945462    0.215578
  H     -9.110888    2.474507    0.240549
  H    -10.121476    2.425750   -2.096981
  H    -11.655429    3.926109   -3.346704
  H    -14.080735    3.987934   -2.835261
  H    -15.034081    2.521446   -1.062233
  H    -15.433859    0.685136    0.973551
  H    -15.174754   -1.038090    2.752854
  H    -12.938812   -1.968382    3.284597
  H    -10.916648   -1.225789    2.048822
  H    -10.021735   -1.694283   -0.294791
  H     -7.620837   -2.236264   -0.268188
  H     -2.812121    0.193562   -0.024085

ORBITAL ENERGIES
----------------

  NO   OCC          E(Eh)            E(eV)
   0   2.0000     -19.213565      -522.8277
   1   2.0000     -14.450282      -393.2122
   2   2.0000     -14.450280      -393.2121
   3   2.0000     -10.329246      -281.0731
   4   2.0000     -10.294514      -280.1280
   5   2.0000     -10.294513      -280.1279
   6   2.0000     -10.277618      -279.6682
   7   2.0000     -10.277617      -279.6682
   8   2.0000     -10.277530      -279.6658
   9   2.0000     -10.277528      -279.6657
  10   2.0000     -10.266786      -279.3735
  11   2.0000     -10.266779      -279.3733
  12   2.0000     -10.265514      -279.3388
  13   2.0000     -10.265411      -279.3360
  14   2.0000     -10.262138      -279.2470
  15   2.0000     -10.262137      -279.2470
  16   2.0000     -10.261662      -279.2340
  17   2.0000     -10.261657      -279.2339
  18   2.0000     -10.261084      -279.2183
  19   2.0000     -10.261064      -279.2178
  20   2.0000     -10.260545      -279.2036
  21   2.0000     -10.260446      -279.2009
  22   2.0000     -10.256255      -279.0869
  23   2.0000     -10.256254      -279.0869
  24   2.0000     -10.255950      -279.0786
  25   2.0000     -10.255948      -279.0785
  26   2.0000     -10.255657      -279.0706
  27   2.0000     -10.255657      -279.0706
  28   2.0000     -10.255539      -279.0674
  29   2.0000     -10.255539      -279.0674
  30   2.0000     -10.255213      -279.0585
  31   2.0000     -10.255212      -279.0585
  32   2.0000     -10.254770      -279.0465
  33   2.0000     -10.254769      -279.0465
  34   2.0000     -10.251873      -278.9676
  35   2.0000     -10.251849      -278.9670
  36   2.0000     -10.241309      -278.6802
  37   2.0000     -10.241309      -278.6802
  38   2.0000     -10.241169      -278.6764
  39   2.0000     -10.241168      -278.6764
  40   2.0000     -10.241084      -278.6741
  41   2.0000     -10.241083      -278.6740
  42   2.0000     -10.240880      -278.6685
  43   2.0000     -10.240878      -278.6685
  44   2.0000     -10.240172      -278.6493
  45   2.0000     -10.240172      -278.6492
  46   2.0000     -10.239932      -278.6427
  47   2.0000     -10.239931      -278.6427
  48   2.0000     -10.239866      -278.6409
  49   2.0000     -10.239865      -278.6409
  50   2.0000     -10.239572      -278.6329
  51   2.0000     -10.239570      -278.6329
  52   2.0000     -10.233745      -278.4744
  53   2.0000     -10.233744      -278.4743
  54   2.0000     -10.233507      -278.4679
  55   2.0000     -10.233505      -278.4678
  56   2.0000      -1.070985       -29.1430
  57   2.0000      -1.024720       -27.8841
  58   2.0000      -1.024720       -27.8840
  59   2.0000      -0.927687       -25.2436
  60   2.0000      -0.904524       -24.6134
  61   2.0000      -0.904072       -24.6010
  62   2.0000      -0.894402       -24.3379
  63   2.0000      -0.873477       -23.7685
  64   2.0000      -0.872067       -23.7301
  65   2.0000      -0.870184       -23.6789
  66   2.0000      -0.870183       -23.6789
  67   2.0000      -0.855546       -23.2806
  68   2.0000      -0.832293       -22.6478
  69   2.0000      -0.823284       -22.4027
  70   2.0000      -0.807299       -21.9677
  71   2.0000      -0.804595       -21.8942
  72   2.0000      -0.791882       -21.5482
  73   2.0000      -0.784075       -21.3358
  74   2.0000      -0.783859       -21.3299
  75   2.0000      -0.782473       -21.2922
  76   2.0000      -0.779662       -21.2157
  77   2.0000      -0.770187       -20.9578
  78   2.0000      -0.770090       -20.9552
  79   2.0000      -0.765393       -20.8274
  80   2.0000      -0.751980       -20.4624
  81   2.0000      -0.736584       -20.0435
  82   2.0000      -0.736564       -20.0429
  83   2.0000      -0.735310       -20.0088
  84   2.0000      -0.721532       -19.6339
  85   2.0000      -0.700735       -19.0680
  86   2.0000      -0.685119       -18.6430
  87   2.0000      -0.674179       -18.3454
  88   2.0000      -0.660116       -17.9627
  89   2.0000      -0.652252       -17.7487
  90   2.0000      -0.650843       -17.7103
  91   2.0000      -0.642886       -17.4938
  92   2.0000      -0.636726       -17.3262
  93   2.0000      -0.628859       -17.1121
  94   2.0000      -0.623544       -16.9675
  95   2.0000      -0.622431       -16.9372
  96   2.0000      -0.619873       -16.8676
  97   2.0000      -0.605119       -16.4661
  98   2.0000      -0.601176       -16.3588
  99   2.0000      -0.592924       -16.1343
 100   2.0000      -0.592756       -16.1297
 101   2.0000      -0.592106       -16.1120
 102   2.0000      -0.585310       -15.9271
 103   2.0000      -0.573008       -15.5923
 104   2.0000      -0.560901       -15.2629
 105   2.0000      -0.560412       -15.2496
 106   2.0000      -0.539436       -14.6788
 107   2.0000      -0.538758       -14.6603
 108   2.0000      -0.536536       -14.5999
 109   2.0000      -0.532592       -14.4926
 110   2.0000      -0.529059       -14.3964
 111   2.0000      -0.526540       -14.3279
 112   2.0000      -0.519247       -14.1294
 113   2.0000      -0.510211       -13.8836
 114   2.0000      -0.509650       -13.8683
 115   2.0000      -0.493000       -13.4152
 116   2.0000      -0.492532       -13.4025
 117   2.0000      -0.482832       -13.1385
 118   2.0000      -0.482146       -13.1199
 119   2.0000      -0.478644       -13.0246
 120   2.0000      -0.472499       -12.8573
 121   2.0000      -0.472307       -12.8521
 122   2.0000      -0.471689       -12.8353
 123   2.0000      -0.470370       -12.7994
 124   2.0000      -0.468654       -12.7527
 125   2.0000      -0.463582       -12.6147
 126   2.0000      -0.462375       -12.5819
 127   2.0000      -0.459123       -12.4934
 128   2.0000      -0.456785       -12.4298
 129   2.0000      -0.454591       -12.3701
 130   2.0000      -0.454453       -12.3663
 131   2.0000      -0.452742       -12.3197
 132   2.0000      -0.452467       -12.3122
 133   2.0000      -0.450845       -12.2681
 134   2.0000      -0.447616       -12.1803
 135   2.0000      -0.445972       -12.1355
 136   2.0000      -0.443254       -12.0616
 137   2.0000      -0.443163       -12.0591
 138   2.0000      -0.440877       -11.9969
 139   2.0000      -0.437564       -11.9067
 140   2.0000      -0.432659       -11.7732
 141   2.0000      -0.432568       -11.7708
 142   2.0000      -0.419723       -11.4212
 143   2.0000      -0.413632       -11.2555
 144   2.0000      -0.412239       -11.2176
 145   2.0000      -0.410560       -11.1719
 146   2.0000      -0.407842       -11.0980
 147   2.0000      -0.401461       -10.9243
 148   2.0000      -0.399816       -10.8795
 149   2.0000      -0.398389       -10.8407
 150   2.0000      -0.385961       -10.5025
 151   2.0000      -0.385187       -10.4815
 152   2.0000      -0.381176       -10.3723
 153   2.0000      -0.380967       -10.3666
 154   2.0000      -0.379377       -10.3234
 155   2.0000      -0.379171       -10.3178
 156   2.0000      -0.376446       -10.2436
 157   2.0000      -0.375450       -10.2165
 158   2.0000      -0.374283       -10.1848
 159   2.0000      -0.372994       -10.1497
 160   2.0000      -0.368267       -10.0210
 161   2.0000      -0.366358        -9.9691
 162   2.0000      -0.360690        -9.8149
 163   2.0000      -0.357034        -9.7154
 164   2.0000      -0.354888        -9.6570
 165   2.0000      -0.352273        -9.5858
 166   2.0000      -0.352271        -9.5858
 167   2.0000      -0.350456        -9.5364
 168   2.0000      -0.345447        -9.4001
 169   2.0000      -0.330892        -9.0040
 170   2.0000      -0.309898        -8.4328
 171   2.0000      -0.299845        -8.1592
 172   2.0000      -0.298759        -8.1296
 173   2.0000      -0.290828        -7.9138
 174   2.0000      -0.286666        -7.8006
 175   2.0000      -0.285901        -7.7798
 176   2.0000      -0.285860        -7.7787
 177   2.0000      -0.281644        -7.6639
 178   2.0000      -0.275212        -7.4889
 179   2.0000      -0.271268        -7.3816
 180   2.0000      -0.271266        -7.3815
 181   2.0000      -0.248584        -6.7643
 182   2.0000      -0.231606        -6.3023
 183   2.0000      -0.231604        -6.3023
 184   2.0000      -0.228605        -6.2207
 185   2.0000      -0.215050        -5.8518
 186   2.0000      -0.209196        -5.6925
 187   0.0000      -0.096192        -2.6175
 188   0.0000      -0.077469        -2.1080
 189   0.0000      -0.061172        -1.6646
 190   0.0000      -0.033861        -0.9214
 191   0.0000      -0.033860        -0.9214

Total SCF time: 0 days 0 hours 6 min 47 sec

---------------------------------------------------------------------------------------------------------------------
                    SOC CORRECTED ABSORPTION SPECTRUM VIA TRANSITION ELECTRIC DIPOLE MOMENTS*
---------------------------------------------------------------------------------------------------------------------
   State    Energy  Wavelength   fosc         T2              TX                    TY                    TZ
            (cm-1)    (nm)                  (au**2)          (au)                  (au)                  (au)
---------------------------------------------------------------------------------------------------------------------
   0   1   13519.6    739.7   0.000000001   0.00000 ( -0.00014,  0.00001) ( -0.00000,  0.00000) (  0.00005, -0.00000)
   0   2   13519.6    739.7   0.000000000   0.00000 (  0.00002, -0.00000) ( -0.00000,  0.00000) ( -0.00001,  0.00000)
   0   3   13519.6    739.7   0.000000000   0.00000 ( -0.00000, -0.00000) ( -0.00001, -0.00001) (  0.00000,  0.00000)
   0   4   17017.5    587.6   0.000000000   0.00000 ( -0.00000,  0.00002) ( -0.00000,  0.00000) ( -0.00000,  0.00000)
   0   5   17017.5    587.6   0.000000000   0.00000 ( -0.00000,  0.00000) (  0.00000, -0.00000) ( -0.00000,  0.00000)
   0   6   17017.5    587.6   0.000000000   0.00000 (  0.00000,  0.00000) ( -0.00004, -0.00000) (  0.00000,  0.00000)
   0   7   19805.8    504.9   0.000000000   0.00000 ( -0.00002,  0.00000) ( -0.00000,  0.00000) (  0.00001, -0.00000)
   0   8   19805.8    504.9   0.000000001   0.00000 (  0.00012,  0.00000) (  0.00000,  0.00000) ( -0.00005, -0.00000)
   0   9   19805.8    504.9   0.000000000   0.00000 (  0.00000, -0.00000) (  0.00001, -0.00000) (  0.00000, -0.00000)
   0  10   20427.0    489.5   0.801306932  12.91428 (  0.13445,  3.59112) (  0.00001,  0.00016) (  0.00032,  0.00859)
   0  11   21704.3    460.7   0.000000000   0.00000 (  0.00000, -0.00003) (  0.00000, -0.00000) (  0.00000, -0.00000)
   0  12   21704.3    460.7   0.000000213   0.00000 ( -0.00012,  0.00180) ( -0.00000,  0.00000) ( -0.00000,  0.00000)
   0  13   21704.4    460.7   0.000000986   0.00001 (  0.00000, -0.00000) ( -0.00386,  0.00024) (  0.00000, -0.00000)
   0  14   23157.7    431.8   0.000000006   0.00000 ( -0.00000, -0.00000) ( -0.00030, -0.00001) (  0.00000,  0.00000)
   0  15   23157.7    431.8   0.000000008   0.00000 ( -0.00001,  0.00034) (  0.00000, -0.00001) ( -0.00000,  0.00003)
   0  16   23157.7    431.8   0.000000000   0.00000 ( -0.00000,  0.00003) ( -0.00000,  0.00004) ( -0.00000,  0.00000)
   0  17   23215.3    430.7   0.025079213   0.35564 ( -0.00027, -0.00002) (  0.59518,  0.03738) ( -0.00154, -0.00010)
   0  18   23986.9    416.9   1.053655238  14.46105 (  1.07860,  3.64658) (  0.00006,  0.00022) (  0.00308,  0.01042)
   0  19   25666.1    389.6   0.608704104   7.80768 (  0.07889,  2.79310) (  0.00002,  0.00057) (  0.00025,  0.00875)
   0  20   26039.2    384.0   0.000035315   0.00045 ( -0.00954, -0.00012) ( -0.01885, -0.00023) (  0.00033,  0.00000)

Dispersion correction           -0.121719392
FINAL SINGLE POINT ENERGY     -2220.820425948094
Dispersion correction                    ... done

DIPOLE MOMENT
-------------
                                X             Y             Z
Electronic contribution:      0.00147       0.62891       0.00844
Nuclear contribution   :      0.00011      -1.20515      -0.00999
                        -----------------------------------------
Total Dipole Moment    :      0.00159      -0.57624      -0.00154
                        -----------------------------------------
Magnitude (a.u.)       :      0.57625
Magnitude (Debye)      :      1.46470

Rotational constants in cm-1:     0.005165     0.000247     0.000242
Rotational constants in MHz :   154.837890     7.392241     7.242398

                             ****ORCA TERMINATED NORMALLY****
TOTAL RUN TIME: 0 days 1 hours 6 minutes 7 seconds 367 msec
