                         Program Version 5.0.3 -  RELEASE  -
|  1> ! PBE0 def2-SVP D3BJ def2/J RIJCOSX tightSCF noautostart miniprint nopop defgrid3
|  2> ! EnGrad
|  3> %maxcore    4000
|  4> %pal    nprocs  8  end
|  5> %tddft  PrintLevel  3
|  6> 	IRootMult	Singlet
|  7> 	TDA	True
|  8> 	NRoots	5
|  9>         MaxDim  10
| 10> end
| 11> * xyzfile 0 1 orcaopt.xyz
| 12>
| 13>
| 14>                          ****END OF INPUT****

CARTESIAN COORDINATES (ANGSTROEM)
---------------------------------
  C      2.284002    2.168173   -0.765555
  C      2.933817    3.280456   -0.274785
  C      4.344401    3.385903   -0.075949
  C      4.920120    4.611453    0.357332
  C      6.284543    4.706010    0.523896
  C      7.084463    3.586038    0.265456
  C      6.437558    2.411604   -0.141703
  C      7.230443    1.178658   -0.402559
  C      8.468862    1.242791   -1.058944
  C      9.158974    0.063215   -1.299409
  C      8.608754   -1.139278   -0.871961
  C      7.375304   -1.104227   -0.210631
  C      6.719841   -2.348239    0.276139
  C      7.458957   -3.503944    0.580792
  C      6.778369   -4.637763    1.004680
  C      5.394964   -4.591375    1.120622
  C      4.740939   -3.386692    0.820759
  C      3.291297   -3.273009    0.948814
  C      2.631974   -2.098805    0.887480
  C      1.186440   -1.964683    0.964945
  C      0.612940   -0.738819    1.339157
  C     -0.761085   -0.569104    1.372030
  C     -1.601083   -1.623508    1.003534
  N     -2.995205   -1.454419    0.963190
  C     -3.823324   -1.845498   -0.077834
  C     -3.486432   -2.343265   -1.340247
  C     -4.522620   -2.639516   -2.212861
  C     -5.860799   -2.438697   -1.848330
  C     -6.193438   -1.924413   -0.597634
  C     -5.171435   -1.615038    0.292112
  C     -5.140973   -1.051367    1.625523
  C     -6.124058   -0.639927    2.513935
  C     -5.739253   -0.152765    3.765008
  C     -4.390940   -0.087532    4.126648
  C     -3.388667   -0.496844    3.252880
  C     -3.778095   -0.962876    1.997424
  C     -1.049409   -2.859021    0.639015
  C      0.321379   -3.023160    0.625402
  N      5.402209   -2.307440    0.406595
  N      6.711753    0.026081    0.006538
  N      5.129126    2.307960   -0.308957
  C      0.871930    2.046490   -0.941764
  C      0.301490    0.876536   -1.507486
  C     -1.064511    0.681877   -1.572367
  C     -1.947888    1.669339   -1.109343
  N     -3.352062    1.450994   -1.082164
  C     -4.185010    1.748243   -0.025373
  C     -3.871461    2.241042    1.249404
  C     -4.918844    2.504092    2.117725
  C     -6.252857    2.260547    1.753960
  C     -6.564261    1.733240    0.505454
  C     -5.531565    1.472149   -0.391602
  C     -5.484475    0.940862   -1.731382
  C     -6.451996    0.462818   -2.609705
  C     -6.057927    0.025462   -3.873530
  C     -4.714464    0.083247   -4.260301
  C     -3.728895    0.557378   -3.399275
  C     -4.122042    0.966814   -2.124255
  C     -1.415460    2.879295   -0.642730
  C     -0.050904    3.058424   -0.545719
  H      2.902887    1.305600   -1.028951
  H      2.366404    4.179583   -0.028002
  H      4.275405    5.470457    0.546850
  H      6.737080    5.640593    0.858949
  H      8.162686    3.612751    0.413628
  H      8.859777    2.201678   -1.396327
  H     10.111162    0.076464   -1.831097
  H      9.114484   -2.082808   -1.072093
  H      8.544716   -3.506532    0.502965
  H      7.324486   -5.549307    1.249581
  H      4.826244   -5.461614    1.448209
  H      2.750925   -4.204763    1.131060
  H      3.223621   -1.183446    0.771761
  H      1.263403    0.107947    1.556777
  H     -1.182179    0.408837    1.594323
  H     -2.448229   -2.488587   -1.629521
  H     -4.288909   -3.016905   -3.207226
  H     -6.648438   -2.673847   -2.562842
  H     -7.233918   -1.752014   -0.324488
  H     -7.176830   -0.701205    2.242963
  H     -6.499634    0.173533    4.473748
  H     -4.116574    0.282424    5.113982
  H     -2.341338   -0.466247    3.546567
  H     -1.707378   -3.686680    0.376257
  H      0.737256   -3.980275    0.313602
  H      0.969447    0.088030   -1.855815
  H     -1.457036   -0.256700   -1.957214
  H     -2.841100    2.436454    1.538185
  H     -4.698963    2.901941    3.107824
  H     -7.051442    2.486264    2.460015
  H     -7.599839    1.538346    0.226012
  H     -7.500499    0.431526   -2.312791
  H     -6.803324   -0.349814   -4.574427
  H     -4.431476   -0.240377   -5.262050
  H     -2.688747    0.617275   -3.713004
  H     -2.091092    3.679430   -0.339029
  H      0.325003    3.997312   -0.143298

ORBITAL ENERGIES
----------------

  NO   OCC          E(Eh)            E(eV)
   0   2.0000     -14.446091      -393.0981
   1   2.0000     -14.440253      -392.9393
   2   2.0000     -14.384223      -391.4146
   3   2.0000     -14.382972      -391.3806
   4   2.0000     -14.379031      -391.2733
   5   2.0000     -10.291407      -280.0434
   6   2.0000     -10.283694      -279.8335
   7   2.0000     -10.280354      -279.7427
   8   2.0000     -10.278002      -279.6787
   9   2.0000     -10.277803      -279.6732
  10   2.0000     -10.277658      -279.6693
  11   2.0000     -10.276883      -279.6482
  12   2.0000     -10.275242      -279.6035
  13   2.0000     -10.269141      -279.4375
  14   2.0000     -10.268287      -279.4143
  15   2.0000     -10.267513      -279.3932
  16   2.0000     -10.266272      -279.3595
  17   2.0000     -10.260687      -279.2075
  18   2.0000     -10.259084      -279.1639
  19   2.0000     -10.257500      -279.1208
  20   2.0000     -10.254341      -279.0348
  21   2.0000     -10.251779      -278.9651
  22   2.0000     -10.251019      -278.9444
  23   2.0000     -10.250450      -278.9289
  24   2.0000     -10.249864      -278.9130
  25   2.0000     -10.249329      -278.8984
  26   2.0000     -10.248786      -278.8837
  27   2.0000     -10.248064      -278.8640
  28   2.0000     -10.247735      -278.8551
  29   2.0000     -10.247679      -278.8535
  30   2.0000     -10.247233      -278.8414
  31   2.0000     -10.246860      -278.8312
  32   2.0000     -10.246554      -278.8229
  33   2.0000     -10.243940      -278.7518
  34   2.0000     -10.243358      -278.7359
  35   2.0000     -10.242669      -278.7172
  36   2.0000     -10.242644      -278.7165
  37   2.0000     -10.241695      -278.6907
  38   2.0000     -10.237918      -278.5879
  39   2.0000     -10.234137      -278.4850
  40   2.0000     -10.233875      -278.4779
  41   2.0000     -10.232349      -278.4364
  42   2.0000     -10.232192      -278.4321
  43   2.0000     -10.231666      -278.4178
  44   2.0000     -10.231468      -278.4124
  45   2.0000     -10.231005      -278.3998
  46   2.0000     -10.230930      -278.3978
  47   2.0000     -10.230862      -278.3959
  48   2.0000     -10.230615      -278.3892
  49   2.0000     -10.230304      -278.3807
  50   2.0000     -10.230279      -278.3800
  51   2.0000     -10.230128      -278.3759
  52   2.0000     -10.229454      -278.3576
  53   2.0000     -10.228619      -278.3349
  54   2.0000     -10.228558      -278.3332
  55   2.0000     -10.228050      -278.3194
  56   2.0000     -10.225960      -278.2625
  57   2.0000     -10.224487      -278.2224
  58   2.0000     -10.224356      -278.2189
  59   2.0000     -10.222078      -278.1569
  60   2.0000      -1.020562       -27.7709
  61   2.0000      -1.016452       -27.6591
  62   2.0000      -0.985959       -26.8293
  63   2.0000      -0.970935       -26.4205
  64   2.0000      -0.955797       -26.0086
  65   2.0000      -0.896721       -24.4010
  66   2.0000      -0.892460       -24.2851
  67   2.0000      -0.866559       -23.5803
  68   2.0000      -0.864938       -23.5361
  69   2.0000      -0.860607       -23.4183
  70   2.0000      -0.857939       -23.3457
  71   2.0000      -0.839064       -22.8321
  72   2.0000      -0.830680       -22.6040
  73   2.0000      -0.829681       -22.5768
  74   2.0000      -0.825189       -22.4545
  75   2.0000      -0.819714       -22.3055
  76   2.0000      -0.812958       -22.1217
  77   2.0000      -0.805965       -21.9314
  78   2.0000      -0.790597       -21.5132
  79   2.0000      -0.784224       -21.3398
  80   2.0000      -0.778266       -21.1777
  81   2.0000      -0.774814       -21.0838
  82   2.0000      -0.768658       -20.9163
  83   2.0000      -0.763380       -20.7726
  84   2.0000      -0.758819       -20.6485
  85   2.0000      -0.754541       -20.5321
  86   2.0000      -0.744696       -20.2642
  87   2.0000      -0.730271       -19.8717
  88   2.0000      -0.726977       -19.7820
  89   2.0000      -0.726157       -19.7597
  90   2.0000      -0.718082       -19.5400
  91   2.0000      -0.685925       -18.6650
  92   2.0000      -0.678648       -18.4669
  93   2.0000      -0.674628       -18.3576
  94   2.0000      -0.669437       -18.2163
  95   2.0000      -0.650312       -17.6959
  96   2.0000      -0.647194       -17.6110
  97   2.0000      -0.642471       -17.4825
  98   2.0000      -0.639804       -17.4099
  99   2.0000      -0.629439       -17.1279
 100   2.0000      -0.627681       -17.0801
 101   2.0000      -0.622561       -16.9407
 102   2.0000      -0.616375       -16.7724
 103   2.0000      -0.613290       -16.6885
 104   2.0000      -0.610938       -16.6245
 105   2.0000      -0.596812       -16.2401
 106   2.0000      -0.591133       -16.0855
 107   2.0000      -0.586247       -15.9526
 108   2.0000      -0.581832       -15.8325
 109   2.0000      -0.580458       -15.7951
 110   2.0000      -0.573775       -15.6132
 111   2.0000      -0.554470       -15.0879
 112   2.0000      -0.552760       -15.0414
 113   2.0000      -0.550991       -14.9932
 114   2.0000      -0.535744       -14.5783
 115   2.0000      -0.530635       -14.4393
 116   2.0000      -0.528577       -14.3833
 117   2.0000      -0.526006       -14.3133
 118   2.0000      -0.522693       -14.2232
 119   2.0000      -0.516327       -14.0500
 120   2.0000      -0.514602       -14.0030
 121   2.0000      -0.510978       -13.9044
 122   2.0000      -0.504445       -13.7266
 123   2.0000      -0.501909       -13.6576
 124   2.0000      -0.495085       -13.4719
 125   2.0000      -0.491135       -13.3645
 126   2.0000      -0.481663       -13.1067
 127   2.0000      -0.477409       -12.9910
 128   2.0000      -0.474466       -12.9109
 129   2.0000      -0.472072       -12.8457
 130   2.0000      -0.470025       -12.7900
 131   2.0000      -0.465024       -12.6540
 132   2.0000      -0.463123       -12.6022
 133   2.0000      -0.461755       -12.5650
 134   2.0000      -0.458973       -12.4893
 135   2.0000      -0.455640       -12.3986
 136   2.0000      -0.450177       -12.2500
 137   2.0000      -0.447524       -12.1777
 138   2.0000      -0.446126       -12.1397
 139   2.0000      -0.444593       -12.0980
 140   2.0000      -0.442744       -12.0477
 141   2.0000      -0.442526       -12.0417
 142   2.0000      -0.440669       -11.9912
 143   2.0000      -0.439525       -11.9601
 144   2.0000      -0.434503       -11.8234
 145   2.0000      -0.433993       -11.8095
 146   2.0000      -0.433855       -11.8058
 147   2.0000      -0.429577       -11.6894
 148   2.0000      -0.427767       -11.6401
 149   2.0000      -0.425247       -11.5716
 150   2.0000      -0.424518       -11.5517
 151   2.0000      -0.422653       -11.5010
 152   2.0000      -0.418622       -11.3913
 153   2.0000      -0.417151       -11.3513
 154   2.0000      -0.410118       -11.1599
 155   2.0000      -0.407054       -11.0765
 156   2.0000      -0.402283       -10.9467
 157   2.0000      -0.401305       -10.9201
 158   2.0000      -0.398911       -10.8549
 159   2.0000      -0.396268       -10.7830
 160   2.0000      -0.389588       -10.6012
 161   2.0000      -0.387468       -10.5435
 162   2.0000      -0.384141       -10.4530
 163   2.0000      -0.379420       -10.3245
 164   2.0000      -0.373681       -10.1684
 165   2.0000      -0.372420       -10.1341
 166   2.0000      -0.371611       -10.1120
 167   2.0000      -0.371079       -10.0976
 168   2.0000      -0.366295        -9.9674
 169   2.0000      -0.364261        -9.9121
 170   2.0000      -0.357068        -9.7163
 171   2.0000      -0.354981        -9.6595
 172   2.0000      -0.347401        -9.4533
 173   2.0000      -0.346917        -9.4401
 174   2.0000      -0.345919        -9.4129
 175   2.0000      -0.343207        -9.3391
 176   2.0000      -0.341826        -9.3015
 177   2.0000      -0.336956        -9.1690
 178   2.0000      -0.334553        -9.1037
 179   2.0000      -0.319793        -8.7020
 180   2.0000      -0.315019        -8.5721
 181   2.0000      -0.313427        -8.5288
 182   2.0000      -0.305440        -8.3115
 183   2.0000      -0.299707        -8.1554
 184   2.0000      -0.295049        -8.0287
 185   2.0000      -0.286068        -7.7843
 186   2.0000      -0.282551        -7.6886
 187   2.0000      -0.279365        -7.6019
 188   2.0000      -0.273058        -7.4303
 189   2.0000      -0.268915        -7.3176
 190   2.0000      -0.266607        -7.2548
 191   2.0000      -0.266214        -7.2441
 192   2.0000      -0.261063        -7.1039
 193   2.0000      -0.257053        -6.9948
 194   2.0000      -0.243194        -6.6176
 195   2.0000      -0.235106        -6.3975
 196   2.0000      -0.231132        -6.2894
 197   2.0000      -0.226111        -6.1528
 198   2.0000      -0.214945        -5.8490
 199   2.0000      -0.209666        -5.7053
 200   2.0000      -0.190968        -5.1965
 201   0.0000      -0.075183        -2.0458
 202   0.0000      -0.060695        -1.6516
 203   0.0000      -0.050611        -1.3772
 204   0.0000      -0.044379        -1.2076
 205   0.0000      -0.036294        -0.9876

Total SCF time: 0 days 1 hours 22 min 27 sec

-----------------------------------------------------------------------------
         ABSORPTION SPECTRUM VIA TRANSITION ELECTRIC DIPOLE MOMENTS
-----------------------------------------------------------------------------
State   Energy    Wavelength  fosc         T2        TX        TY        TZ
        (cm-1)      (nm)                 (au**2)    (au)      (au)      (au)
-----------------------------------------------------------------------------
   1   21386.0    467.6   0.120314720   1.85211   1.31316   0.34804   0.08106
   2   24524.0    407.8   0.141662950   1.90169  -1.29553   0.47058   0.04304
   3   25694.1    389.2   0.448063787   5.74092   2.37547   0.25379   0.18350
   4   26709.7    374.4   0.080378904   0.99071  -0.97976  -0.11407  -0.13334
   5   27814.8    359.5   0.011953937   0.14148   0.36607  -0.08210  -0.02715

Dispersion correction           -0.163946384
FINAL SINGLE POINT ENERGY     -2387.521024384373
Dispersion correction                    ... done

DIPOLE MOMENT
-------------
                                X             Y             Z
Electronic contribution:      2.48621      -3.53383       0.76244
Nuclear contribution   :     -7.76880       0.13499       0.20995
                        -----------------------------------------
Total Dipole Moment    :     -5.28259      -3.39884       0.97238
                        -----------------------------------------
Magnitude (a.u.)       :      6.35636
Magnitude (Debye)      :     16.15659

Rotational constants in cm-1:     0.002755     0.000789     0.000722
Rotational constants in MHz :    82.580461    23.660320    21.633990

                             ****ORCA TERMINATED NORMALLY****
TOTAL RUN TIME: 0 days 3 hours 24 minutes 12 seconds 349 msec
