                         Program Version 5.0.3 -  RELEASE  -
|  1> ! PBE0 def2-SVP D3BJ def2/J RIJCOSX tightSCF noautostart miniprint nopop defgrid3
|  2> ! EnGrad
|  3> %maxcore    4000
|  4> %pal    nprocs  20  end
|  5> %tddft  PrintLevel  3
|  6> 	TDA	False
|  7> 	DoSOC	True
|  8> 	NRoots	5
|  9> 	IRoot	1
| 10>         MaxDim  10
| 11> end
| 12> * xyzfile 0 1 /gpfs/fs0/scratch/a/aspuru/malcolms/aiida/c3/fa/679e-d5df-4596-9de7-eb75d21e247f/orca_freq.xyz
| 13>
| 14>
| 15>                          ****END OF INPUT****

CARTESIAN COORDINATES (ANGSTROEM)
---------------------------------
  C      2.314658    2.152219   -0.605479
  C      2.866843    3.243206   -0.038234
  C      4.299574    3.382024    0.218070
  C      4.809031    4.572467    0.765555
  C      6.176042    4.675433    0.989696
  C      6.996232    3.599779    0.666061
  C      6.402053    2.446918    0.128655
  C      7.221884    1.253054   -0.224168
  C      8.519685    1.391082   -0.736712
  C      9.220617    0.238250   -1.071156
  C      8.618665   -0.999325   -0.877138
  C      7.320061   -1.041585   -0.346025
  C      6.609601   -2.333650   -0.108043
  C      7.291911   -3.561941   -0.100799
  C      6.560486   -4.726772    0.103883
  C      5.188230   -4.639718    0.300405
  C      4.588391   -3.368534    0.298829
  C      3.150858   -3.227453    0.529613
  C      2.539571   -2.038597    0.700399
  C      1.108714   -1.843695    0.914241
  C      0.629620   -0.625647    1.423354
  C     -0.728942   -0.405785    1.622973
  C     -1.652895   -1.412455    1.327721
  N     -3.032824   -1.223512    1.528204
  C     -4.031125   -1.582206    0.625334
  C     -3.920410   -1.994349   -0.704598
  C     -5.093829   -2.260525   -1.401293
  C     -6.351709   -2.125261   -0.794568
  C     -6.458257   -1.697079    0.522960
  C     -5.293499   -1.417127    1.242486
  C     -5.041969   -0.928131    2.578174
  C     -5.873133   -0.569359    3.641756
  C     -5.299994   -0.118223    4.825773
  C     -3.905034   -0.038177    4.956291
  C     -3.055102   -0.390912    3.911491
  C     -3.636113   -0.821261    2.717411
  C     -1.190200   -2.635596    0.823273
  C      0.162780   -2.838820    0.609711
  N      5.300013   -2.258628    0.092891
  N      6.652060    0.067286   -0.039867
  N      5.095734    2.352250   -0.083530
  C      0.897551    1.943752   -0.877533
  C      0.470503    0.743520   -1.468536
  C     -0.875868    0.481202   -1.694685
  C     -1.841980    1.433882   -1.357162
  N     -3.210611    1.201266   -1.575160
  C     -4.227261    1.491977   -0.667308
  C     -4.140479    1.896510    0.666712
  C     -5.327154    2.093345    1.363804
  C     -6.575360    1.893523    0.755261
  C     -6.657061    1.468793   -0.565290
  C     -5.478236    1.259642   -1.285616
  C     -5.200249    0.793723   -2.624254
  C     -6.011573    0.393477   -3.688247
  C     -5.416041   -0.013704   -4.877076
  C     -4.019410   -0.007040   -5.011857
  C     -3.189157    0.388210   -3.966403
  C     -3.790862    0.771652   -2.766503
  C     -1.429057    2.650372   -0.794004
  C     -0.088471    2.891760   -0.549534
  H      3.001711    1.343293   -0.878577
  H      2.248172    4.095677    0.257164
  H      4.134461    5.396596    1.007751
  H      6.600249    5.584812    1.422085
  H      8.070676    3.637911    0.852811
  H      8.954372    2.378748   -0.900016
  H     10.225163    0.303280   -1.495674
  H      9.144850   -1.912728   -1.155881
  H      8.372459   -3.610351   -0.237149
  H      7.061988   -5.697410    0.115788
  H      4.582967   -5.533713    0.465410
  H      2.581254   -4.160067    0.586985
  H      3.179906   -1.148371    0.688897
  H      1.340686    0.174041    1.644610
  H     -1.079933    0.563750    1.979610
  H     -2.949417   -2.088177   -1.191314
  H     -5.031127   -2.561350   -2.449407
  H     -7.252881   -2.339563   -1.372999
  H     -7.437310   -1.566810    0.989329
  H     -6.958498   -0.640232    3.539254
  H     -5.937402    0.169020    5.664864
  H     -3.472122    0.304406    5.899182
  H     -1.972150   -0.336895    4.029072
  H     -1.907595   -3.428137    0.604077
  H      0.493904   -3.791860    0.192275
  H      1.213636   -0.016453   -1.721514
  H     -1.182982   -0.480122   -2.108206
  H     -3.177669    2.033547    1.159089
  H     -5.280702    2.388104    2.414369
  H     -7.487562    2.055457    1.333517
  H     -7.627133    1.287316   -1.033534
  H     -7.098963    0.399385   -3.582782
  H     -6.037388   -0.333049   -5.716584
  H     -3.569146   -0.314355   -5.958750
  H     -2.105753    0.402148   -4.089621
  H     -2.175777    3.411124   -0.561482
  H      0.199010    3.846810   -0.105673

ORBITAL ENERGIES
----------------

  NO   OCC          E(Eh)            E(eV)
   0   2.0000     -14.444090      -393.0437
   1   2.0000     -14.442823      -393.0092
   2   2.0000     -14.383893      -391.4056
   3   2.0000     -14.383136      -391.3850
   4   2.0000     -14.380938      -391.3252
   5   2.0000     -10.287129      -279.9270
   6   2.0000     -10.285527      -279.8834
   7   2.0000     -10.280723      -279.7527
   8   2.0000     -10.279760      -279.7265
   9   2.0000     -10.279629      -279.7229
  10   2.0000     -10.279159      -279.7101
  11   2.0000     -10.279018      -279.7063
  12   2.0000     -10.277930      -279.6767
  13   2.0000     -10.270870      -279.4846
  14   2.0000     -10.270172      -279.4656
  15   2.0000     -10.269450      -279.4459
  16   2.0000     -10.268764      -279.4273
  17   2.0000     -10.262283      -279.2509
  18   2.0000     -10.259690      -279.1804
  19   2.0000     -10.259180      -279.1665
  20   2.0000     -10.253564      -279.0137
  21   2.0000     -10.253179      -279.0032
  22   2.0000     -10.250087      -278.9190
  23   2.0000     -10.249909      -278.9142
  24   2.0000     -10.249752      -278.9099
  25   2.0000     -10.249131      -278.8930
  26   2.0000     -10.248855      -278.8855
  27   2.0000     -10.248318      -278.8709
  28   2.0000     -10.246913      -278.8327
  29   2.0000     -10.245818      -278.8029
  30   2.0000     -10.245499      -278.7942
  31   2.0000     -10.245487      -278.7939
  32   2.0000     -10.245020      -278.7812
  33   2.0000     -10.244665      -278.7715
  34   2.0000     -10.244517      -278.7675
  35   2.0000     -10.243856      -278.7495
  36   2.0000     -10.241633      -278.6890
  37   2.0000     -10.239922      -278.6424
  38   2.0000     -10.238503      -278.6038
  39   2.0000     -10.236669      -278.5539
  40   2.0000     -10.235169      -278.5131
  41   2.0000     -10.234880      -278.5052
  42   2.0000     -10.234587      -278.4973
  43   2.0000     -10.234382      -278.4917
  44   2.0000     -10.234225      -278.4874
  45   2.0000     -10.233769      -278.4750
  46   2.0000     -10.233315      -278.4627
  47   2.0000     -10.233132      -278.4577
  48   2.0000     -10.232570      -278.4424
  49   2.0000     -10.232531      -278.4413
  50   2.0000     -10.232125      -278.4303
  51   2.0000     -10.231789      -278.4211
  52   2.0000     -10.230830      -278.3950
  53   2.0000     -10.230661      -278.3904
  54   2.0000     -10.230335      -278.3816
  55   2.0000     -10.230213      -278.3783
  56   2.0000     -10.228599      -278.3343
  57   2.0000     -10.228112      -278.3211
  58   2.0000     -10.225281      -278.2440
  59   2.0000     -10.224476      -278.2221
  60   2.0000      -1.017168       -27.6785
  61   2.0000      -1.015458       -27.6320
  62   2.0000      -0.986607       -26.8469
  63   2.0000      -0.972318       -26.4581
  64   2.0000      -0.956989       -26.0410
  65   2.0000      -0.895788       -24.3756
  66   2.0000      -0.892632       -24.2897
  67   2.0000      -0.865548       -23.5527
  68   2.0000      -0.864120       -23.5139
  69   2.0000      -0.862737       -23.4763
  70   2.0000      -0.860775       -23.4229
  71   2.0000      -0.838722       -22.8228
  72   2.0000      -0.831335       -22.6218
  73   2.0000      -0.828980       -22.5577
  74   2.0000      -0.825540       -22.4641
  75   2.0000      -0.819478       -22.2991
  76   2.0000      -0.813955       -22.1488
  77   2.0000      -0.804591       -21.8940
  78   2.0000      -0.792894       -21.5757
  79   2.0000      -0.781812       -21.2742
  80   2.0000      -0.775560       -21.1041
  81   2.0000      -0.773761       -21.0551
  82   2.0000      -0.769700       -20.9446
  83   2.0000      -0.762439       -20.7470
  84   2.0000      -0.760817       -20.7029
  85   2.0000      -0.755135       -20.5483
  86   2.0000      -0.746876       -20.3235
  87   2.0000      -0.730169       -19.8689
  88   2.0000      -0.727449       -19.7949
  89   2.0000      -0.725650       -19.7459
  90   2.0000      -0.721139       -19.6232
  91   2.0000      -0.683827       -18.6079
  92   2.0000      -0.679944       -18.5022
  93   2.0000      -0.673611       -18.3299
  94   2.0000      -0.669050       -18.2058
  95   2.0000      -0.649539       -17.6749
  96   2.0000      -0.648128       -17.6365
  97   2.0000      -0.642562       -17.4850
  98   2.0000      -0.639869       -17.4117
  99   2.0000      -0.630150       -17.1473
 100   2.0000      -0.628400       -17.0996
 101   2.0000      -0.622702       -16.9446
 102   2.0000      -0.614994       -16.7348
 103   2.0000      -0.614271       -16.7152
 104   2.0000      -0.612210       -16.6591
 105   2.0000      -0.594391       -16.1742
 106   2.0000      -0.592378       -16.1194
 107   2.0000      -0.585634       -15.9359
 108   2.0000      -0.584476       -15.9044
 109   2.0000      -0.578254       -15.7351
 110   2.0000      -0.573411       -15.6033
 111   2.0000      -0.554259       -15.0821
 112   2.0000      -0.552703       -15.0398
 113   2.0000      -0.551674       -15.0118
 114   2.0000      -0.536443       -14.5973
 115   2.0000      -0.529953       -14.4208
 116   2.0000      -0.528838       -14.3904
 117   2.0000      -0.524404       -14.2698
 118   2.0000      -0.523966       -14.2578
 119   2.0000      -0.516907       -14.0658
 120   2.0000      -0.515042       -14.0150
 121   2.0000      -0.510338       -13.8870
 122   2.0000      -0.502772       -13.6811
 123   2.0000      -0.502265       -13.6673
 124   2.0000      -0.494596       -13.4586
 125   2.0000      -0.491909       -13.3855
 126   2.0000      -0.481499       -13.1023
 127   2.0000      -0.477750       -13.0002
 128   2.0000      -0.473943       -12.8966
 129   2.0000      -0.471847       -12.8396
 130   2.0000      -0.469811       -12.7842
 131   2.0000      -0.465062       -12.6550
 132   2.0000      -0.464201       -12.6315
 133   2.0000      -0.461622       -12.5614
 134   2.0000      -0.457464       -12.4482
 135   2.0000      -0.456347       -12.4178
 136   2.0000      -0.449415       -12.2292
 137   2.0000      -0.447602       -12.1799
 138   2.0000      -0.446147       -12.1403
 139   2.0000      -0.445703       -12.1282
 140   2.0000      -0.443495       -12.0681
 141   2.0000      -0.442612       -12.0441
 142   2.0000      -0.440543       -11.9878
 143   2.0000      -0.439362       -11.9557
 144   2.0000      -0.436101       -11.8669
 145   2.0000      -0.435089       -11.8394
 146   2.0000      -0.432953       -11.7813
 147   2.0000      -0.431221       -11.7341
 148   2.0000      -0.427738       -11.6393
 149   2.0000      -0.427225       -11.6254
 150   2.0000      -0.424547       -11.5525
 151   2.0000      -0.423230       -11.5167
 152   2.0000      -0.419915       -11.4265
 153   2.0000      -0.418472       -11.3872
 154   2.0000      -0.410392       -11.1673
 155   2.0000      -0.407444       -11.0871
 156   2.0000      -0.400815       -10.9067
 157   2.0000      -0.399159       -10.8617
 158   2.0000      -0.397781       -10.8242
 159   2.0000      -0.395920       -10.7735
 160   2.0000      -0.388545       -10.5729
 161   2.0000      -0.386483       -10.5167
 162   2.0000      -0.377032       -10.2596
 163   2.0000      -0.375269       -10.2116
 164   2.0000      -0.373481       -10.1629
 165   2.0000      -0.372802       -10.1445
 166   2.0000      -0.369866       -10.0646
 167   2.0000      -0.369077       -10.0431
 168   2.0000      -0.367975       -10.0131
 169   2.0000      -0.364537        -9.9196
 170   2.0000      -0.360080        -9.7983
 171   2.0000      -0.356650        -9.7049
 172   2.0000      -0.353406        -9.6167
 173   2.0000      -0.348268        -9.4768
 174   2.0000      -0.347130        -9.4459
 175   2.0000      -0.345211        -9.3937
 176   2.0000      -0.343633        -9.3507
 177   2.0000      -0.338459        -9.2099
 178   2.0000      -0.335461        -9.1284
 179   2.0000      -0.325455        -8.8561
 180   2.0000      -0.316994        -8.6259
 181   2.0000      -0.314521        -8.5586
 182   2.0000      -0.301857        -8.2140
 183   2.0000      -0.299120        -8.1395
 184   2.0000      -0.294587        -8.0161
 185   2.0000      -0.282741        -7.6938
 186   2.0000      -0.280638        -7.6365
 187   2.0000      -0.279446        -7.6041
 188   2.0000      -0.271457        -7.3867
 189   2.0000      -0.268421        -7.3041
 190   2.0000      -0.266492        -7.2516
 191   2.0000      -0.265253        -7.2179
 192   2.0000      -0.261065        -7.1040
 193   2.0000      -0.259980        -7.0744
 194   2.0000      -0.256238        -6.9726
 195   2.0000      -0.234518        -6.3816
 196   2.0000      -0.232167        -6.3176
 197   2.0000      -0.231091        -6.2883
 198   2.0000      -0.214969        -5.8496
 199   2.0000      -0.206371        -5.6156
 200   2.0000      -0.203236        -5.5303
 201   0.0000      -0.065248        -1.7755
 202   0.0000      -0.063267        -1.7216
 203   0.0000      -0.054197        -1.4748
 204   0.0000      -0.047544        -1.2937
 205   0.0000      -0.029308        -0.7975

Total SCF time: 0 days 0 hours 9 min 53 sec

---------------------------------------------------------------------------------------------------------------------
                    SOC CORRECTED ABSORPTION SPECTRUM VIA TRANSITION ELECTRIC DIPOLE MOMENTS*
---------------------------------------------------------------------------------------------------------------------
   State    Energy  Wavelength   fosc         T2              TX                    TY                    TZ
            (cm-1)    (nm)                  (au**2)          (au)                  (au)                  (au)
---------------------------------------------------------------------------------------------------------------------
   0   1   16852.1    593.4   0.000000001   0.00000 (  0.00003, -0.00013) (  0.00000, -0.00002) (  0.00000, -0.00001)
   0   2   16852.1    593.4   0.000000000   0.00000 (  0.00000,  0.00000) (  0.00000,  0.00000) ( -0.00000, -0.00000)
   0   3   16852.1    593.4   0.000000000   0.00000 ( -0.00001, -0.00002) ( -0.00000, -0.00000) ( -0.00000, -0.00000)
   0   4   17304.6    577.9   0.000000001   0.00000 (  0.00003, -0.00014) ( -0.00000,  0.00002) ( -0.00000,  0.00002)
   0   5   17304.6    577.9   0.000000000   0.00000 (  0.00001,  0.00000) ( -0.00000, -0.00000) ( -0.00000, -0.00000)
   0   6   17304.6    577.9   0.000000000   0.00000 (  0.00003,  0.00000) (  0.00000,  0.00000) ( -0.00000, -0.00000)
   0   7   23955.5    417.4   0.000000001   0.00000 ( -0.00004,  0.00007) ( -0.00002,  0.00003) ( -0.00001,  0.00002)
   0   8   23955.5    417.4   0.000000000   0.00000 (  0.00007,  0.00002) ( -0.00000, -0.00000) (  0.00000,  0.00000)
   0   9   23955.5    417.4   0.000000000   0.00000 (  0.00001, -0.00004) (  0.00000, -0.00001) (  0.00000, -0.00001)
   0  10   24076.9    415.3   0.000000003   0.00000 ( -0.00010, -0.00017) ( -0.00000, -0.00001) ( -0.00000, -0.00001)
   0  11   24076.9    415.3   0.000000000   0.00000 (  0.00000, -0.00001) (  0.00001, -0.00002) (  0.00000, -0.00001)
   0  12   24076.9    415.3   0.000000000   0.00000 ( -0.00002, -0.00000) ( -0.00000, -0.00000) ( -0.00000, -0.00000)
   0  13   24517.0    407.9   0.000000001   0.00000 ( -0.00000, -0.00001) ( -0.00000, -0.00006) ( -0.00000, -0.00006)
   0  14   24517.0    407.9   0.000000000   0.00000 (  0.00008,  0.00001) (  0.00001,  0.00000) (  0.00001,  0.00000)
   0  15   24517.0    407.9   0.000000000   0.00000 ( -0.00000,  0.00001) (  0.00000, -0.00000) (  0.00000, -0.00000)
   0  16   25679.5    389.4   0.093393028   1.19730 (  0.42881, -0.64133) (  0.32064, -0.47955) (  0.28847, -0.43143)
   0  17   26333.5    379.7   0.206899685   2.58658 ( -1.24360, -0.99340) (  0.14886,  0.11891) (  0.10153,  0.08111)
   0  18   26724.0    374.2   0.467242453   5.75594 (  2.16869,  1.02206) (  0.00253,  0.00119) (  0.08137,  0.03835)
   0  19   27204.3    367.6   0.317387954   3.84086 (  1.20788, -1.54262) (  0.02736, -0.03495) ( -0.00988,  0.01262)
   0  20   28939.5    345.5   0.017703421   0.20139 (  0.39815,  0.11992) (  0.04603,  0.01386) (  0.15491,  0.04666)

Dispersion correction           -0.158464402
FINAL SINGLE POINT ENERGY     -2387.557800648513
Dispersion correction                    ... done

DIPOLE MOMENT
-------------
                                X             Y             Z
Electronic contribution:      3.76204      -0.63541      -0.54034
Nuclear contribution   :     -7.79564      -0.19004       0.28977
                        -----------------------------------------
Total Dipole Moment    :     -4.03359      -0.82546      -0.25057
                        -----------------------------------------
Magnitude (a.u.)       :      4.12480
Magnitude (Debye)      :     10.48442

Rotational constants in cm-1:     0.002556     0.000777     0.000742
Rotational constants in MHz :    76.630226    23.294360    22.248106

                             ****ORCA TERMINATED NORMALLY****
TOTAL RUN TIME: 0 days 1 hours 15 minutes 3 seconds 89 msec
