                         Program Version 5.0.3 -  RELEASE  -
|  1> ! PBE0 def2-SVP D3BJ def2/J RIJCOSX tightSCF noautostart miniprint nopop defgrid3
|  2> %maxcore    4000
|  3> %pal    nprocs  20  end
|  4> %tddft  PrintLevel  3
|  5> 	TDA	False
|  6> 	DoSOC	True
|  7> 	NRoots	5
|  8> 	IRoot	1
|  9>         MaxDim  10
| 10> end
| 11> * xyzfile 0 1 /gpfs/fs0/scratch/a/aspuru/malcolms/aiida/3e/77/cd78-b35a-49bb-9b8b-12e03666275f/orca_freq.xyz
| 12>
| 13>
| 14>                          ****END OF INPUT****

CARTESIAN COORDINATES (ANGSTROEM)
---------------------------------
  C      2.429937   -0.707172    0.000079
  C      2.429927    0.707203    0.000100
  C      1.242354    1.400503    0.000096
  C     -0.000006    0.715016    0.000069
  C     -1.242374    1.400487    0.000059
  C     -2.429938    0.707171    0.000027
  C     -2.429929   -0.707203    0.000005
  C     -1.242355   -1.400504    0.000017
  C      0.000004   -0.715016    0.000048
  C      1.242373   -1.400487    0.000055
  H      3.379448   -1.247667    0.000083
  H      3.379431    1.247712    0.000117
  H      1.239186    2.493749    0.000115
  H     -1.239220    2.493732    0.000079
  H     -3.379450    1.247666    0.000018
  H     -3.379433   -1.247712   -0.000022
  H     -1.239186   -2.493749    0.000002
  H      1.239219   -2.493732    0.000042

ORBITAL ENERGIES
----------------

  NO   OCC          E(Eh)            E(eV)
   0   2.0000     -10.247149      -278.8391
   1   2.0000     -10.246852      -278.8310
   2   2.0000     -10.241284      -278.6795
   3   2.0000     -10.241263      -278.6789
   4   2.0000     -10.241189      -278.6769
   5   2.0000     -10.241182      -278.6767
   6   2.0000     -10.240725      -278.6643
   7   2.0000     -10.240707      -278.6638
   8   2.0000     -10.240562      -278.6599
   9   2.0000     -10.240539      -278.6592
  10   2.0000      -0.896247       -24.3881
  11   2.0000      -0.841725       -22.9045
  12   2.0000      -0.791480       -21.5373
  13   2.0000      -0.758344       -20.6356
  14   2.0000      -0.735304       -20.0086
  15   2.0000      -0.641299       -17.4506
  16   2.0000      -0.627412       -17.0727
  17   2.0000      -0.611903       -16.6507
  18   2.0000      -0.531579       -14.4650
  19   2.0000      -0.521882       -14.2011
  20   2.0000      -0.511299       -13.9132
  21   2.0000      -0.459463       -12.5026
  22   2.0000      -0.458488       -12.4761
  23   2.0000      -0.433608       -11.7991
  24   2.0000      -0.431402       -11.7390
  25   2.0000      -0.412948       -11.2369
  26   2.0000      -0.410548       -11.1716
  27   2.0000      -0.382978       -10.4214
  28   2.0000      -0.352609        -9.5950
  29   2.0000      -0.346030        -9.4160
  30   2.0000      -0.343828        -9.3560
  31   2.0000      -0.302664        -8.2359
  32   2.0000      -0.260329        -7.0839
  33   2.0000      -0.231659        -6.3038
  34   0.0000      -0.042062        -1.1446
  35   0.0000      -0.012339        -0.3358
  36   0.0000       0.028542         0.7767
  37   0.0000       0.071845         1.9550
  38   0.0000       0.088255         2.4015

Total SCF time: 0 days 0 hours 0 min 19 sec

---------------------------------------------------------------------------------------------------------------------
                    SOC CORRECTED ABSORPTION SPECTRUM VIA TRANSITION ELECTRIC DIPOLE MOMENTS*
---------------------------------------------------------------------------------------------------------------------
   State    Energy  Wavelength   fosc         T2              TX                    TY                    TZ
            (cm-1)    (nm)                  (au**2)          (au)                  (au)                  (au)
---------------------------------------------------------------------------------------------------------------------
   0   1   20873.1    479.1   0.000000000   0.00000 (  0.00000,  0.00000) (  0.00000, -0.00000) (  0.00000,  0.00000)
   0   2   20873.1    479.1   0.000000000   0.00000 (  0.00000, -0.00000) (  0.00000,  0.00000) (  0.00000, -0.00000)
   0   3   20873.1    479.1   0.000000000   0.00000 ( -0.00000,  0.00000) ( -0.00000,  0.00000) ( -0.00000,  0.00000)
   0   4   32334.9    309.3   0.000000000   0.00000 (  0.00000,  0.00000) ( -0.00001, -0.00001) ( -0.00000, -0.00000)
   0   5   32334.9    309.3   0.000000000   0.00000 ( -0.00000, -0.00000) (  0.00000,  0.00000) (  0.00000,  0.00000)
   0   6   32334.9    309.3   0.000000000   0.00000 ( -0.00000,  0.00000) (  0.00000, -0.00000) (  0.00000, -0.00000)
   0   7   33453.6    298.9   0.000000000   0.00000 ( -0.00000, -0.00000) ( -0.00000, -0.00000) ( -0.00000, -0.00000)
   0   8   33453.6    298.9   0.000000000   0.00000 ( -0.00000,  0.00000) (  0.00000,  0.00000) (  0.00000,  0.00000)
   0   9   33453.6    298.9   0.000000000   0.00000 (  0.00000,  0.00000) ( -0.00000,  0.00000) ( -0.00000,  0.00000)
   0  10   34891.5    286.6   0.000000000   0.00000 (  0.00000,  0.00000) (  0.00002,  0.00001) (  0.00000,  0.00000)
   0  11   34891.5    286.6   0.000000000   0.00000 (  0.00000,  0.00000) ( -0.00000, -0.00000) ( -0.00000, -0.00000)
   0  12   34891.5    286.6   0.000000000   0.00000 (  0.00000,  0.00000) ( -0.00000, -0.00000) ( -0.00000, -0.00000)
   0  13   35817.6    279.2   0.000000000   0.00000 ( -0.00000, -0.00000) (  0.00000,  0.00000) ( -0.00000, -0.00000)
   0  14   35817.6    279.2   0.000000000   0.00000 (  0.00000,  0.00000) ( -0.00000, -0.00000) ( -0.00000, -0.00000)
   0  15   35817.6    279.2   0.000000000   0.00000 (  0.00000, -0.00000) ( -0.00000,  0.00000) ( -0.00000,  0.00000)
   0  16   36538.0    273.7   0.069358236   0.62493 (  0.00000,  0.00001) ( -0.38514, -0.69036) ( -0.00001, -0.00001)
   0  17   36989.5    270.3   0.000010738   0.00010 ( -0.00036, -0.00977) ( -0.00000, -0.00000) ( -0.00000, -0.00000)
   0  18   47878.9    208.9   0.000000190   0.00000 ( -0.00041,  0.00107) ( -0.00000,  0.00000) ( -0.00000,  0.00000)
   0  19   51132.8    195.6   0.213333240   1.37352 ( -0.00142,  0.00188) (  0.70570, -0.93568) (  0.00001, -0.00001)
   0  20   52013.0    192.3   0.000002652   0.00002 (  0.00161, -0.00377) (  0.00000, -0.00000) (  0.00000, -0.00000)

Dispersion correction           -0.018493374
FINAL SINGLE POINT ENERGY      -385.083675877227

DIPOLE MOMENT
-------------
                                X             Y             Z
Electronic contribution:     -0.00000       0.00000       0.00001
Nuclear contribution   :      0.00000      -0.00000      -0.00001
                        -----------------------------------------
Total Dipole Moment    :      0.00000      -0.00000      -0.00000
                        -----------------------------------------
Magnitude (a.u.)       :      0.00000
Magnitude (Debye)      :      0.00000

Rotational constants in cm-1:     0.104129     0.041109     0.029473
Rotational constants in MHz :  3121.702779  1232.412474   883.583741

                             ****ORCA TERMINATED NORMALLY****
TOTAL RUN TIME: 0 days 0 hours 0 minutes 51 seconds 986 msec
