                         Program Version 5.0.3 -  RELEASE  -
|  1> ! PBE0 def2-SVP D3BJ def2/J RIJCOSX tightSCF noautostart miniprint nopop defgrid3
|  2> ! EnGrad
|  3> %maxcore    4000
|  4> %pal    nprocs  8  end
|  5> %tddft  PrintLevel  3
|  6> 	IRootMult	Singlet
|  7> 	TDA	True
|  8> 	NRoots	5
|  9>         MaxDim  10
| 10> end
| 11> * xyzfile 0 1 orcaopt.xyz
| 12>
| 13>
| 14>                          ****END OF INPUT****

CARTESIAN COORDINATES (ANGSTROEM)
---------------------------------
  C      2.302518    2.152978   -0.786203
  C      2.892205    3.275559   -0.220357
  C      4.286110    3.386642    0.054882
  C      4.836155    4.588128    0.602109
  C      6.192003    4.674460    0.837543
  C      7.014679    3.575872    0.535766
  C      6.392427    2.425238    0.012355
  C      7.203967    1.213700   -0.306496
  C      8.461538    1.320958   -0.920496
  C      9.150714    0.154456   -1.230854
  C      8.579854   -1.074886   -0.915062
  C      7.327893   -1.084043   -0.284437
  C      6.646923   -2.359464    0.090419
  C      7.359580   -3.555753    0.281671
  C      6.652387   -4.705567    0.620944
  C      5.271896   -4.634043    0.771538
  C      4.644268   -3.391172    0.582043
  C      3.204000   -3.237043    0.783349
  C      2.590328   -2.037759    0.816509
  C      1.157406   -1.843154    1.037844
  C      0.655643   -0.624872    1.537214
  C     -0.706437   -0.439207    1.771864
  C     -1.607533   -1.467272    1.465070
  N     -3.006492   -1.326492    1.582100
  C     -3.897294   -1.666840    0.570388
  C     -3.628615   -2.001449   -0.759366
  C     -4.708139   -2.267133   -1.593011
  C     -6.027999   -2.191951   -1.119178
  C     -6.291376   -1.842043    0.203506
  C     -5.221541   -1.564584    1.058482
  C     -5.117156   -1.123536    2.433989
  C     -6.062011   -0.836669    3.422373
  C     -5.621112   -0.430638    4.679118
  C     -4.246754   -0.321340    4.951186
  C     -3.285392   -0.599486    3.981833
  C     -3.733990   -0.983890    2.716478
  C     -1.119673   -2.683002    0.970393
  C      0.233499   -2.864107    0.762435
  N      5.330106   -2.299722    0.241831
  N      6.669554    0.035539    0.003721
  N      5.096130    2.329313   -0.218557
  C      0.907663    1.985234   -1.096302
  C      0.418764    0.796734   -1.709469
  C     -0.929937    0.583382   -1.955274
  C     -1.871179    1.572269   -1.596562
  N     -3.279961    1.374207   -1.699186
  C     -4.156783    1.590436   -0.656483
  C     -3.862177    1.902046    0.676439
  C     -4.928425    2.065658    1.553177
  C     -6.250985    1.900664    1.120388
  C     -6.539222    1.548831   -0.208647
  C     -5.488515    1.383530   -1.100359
  C     -5.384878    0.972177   -2.490215
  C     -6.310871    0.591335   -3.452502
  C     -5.851985    0.266222   -4.737291
  C     -4.484741    0.335340   -5.053743
  C     -3.537037    0.708487   -4.104629
  C     -3.997662    1.001686   -2.813101
  C     -1.406908    2.784092   -1.059073
  C     -0.065188    2.984892   -0.814278
  H      2.982284    1.331066   -1.011155
  H      2.283375    4.151347    0.025560
  H      4.171209    5.428539    0.822614
  H      6.625047    5.586245    1.260278
  H      8.088710    3.595671    0.732878
  H      8.870523    2.302988   -1.172018
  H     10.122074    0.200212   -1.732347
  H      9.088681   -2.006650   -1.174259
  H      8.447753   -3.580142    0.188093
  H      7.179202   -5.651145    0.780029
  H      4.684937   -5.515787    1.044466
  H      2.639043   -4.159945    0.959909
  H      3.217708   -1.153383    0.691283
  H      1.352970    0.194652    1.737362
  H     -1.070482    0.519810    2.150990
  H     -2.601764   -2.016949   -1.123012
  H     -4.525555   -2.512070   -2.643557
  H     -6.849554   -2.376560   -1.813535
  H     -7.321070   -1.758314    0.563802
  H     -7.129926   -0.922726    3.193590
  H     -6.346017   -0.199385    5.464651
  H     -3.920283   -0.015591    5.949537
  H     -2.219226   -0.524863    4.208055
  H     -1.821269   -3.493566    0.757550
  H      0.584209   -3.817410    0.359180
  H      1.140708    0.017917   -1.974874
  H     -1.261936   -0.361914   -2.392380
  H     -2.827084    1.982018    1.003053
  H     -4.728759    2.293424    2.603744
  H     -7.059794    2.008676    1.846115
  H     -7.571898    1.384487   -0.529684
  H     -7.374202    0.532355   -3.194062
  H     -6.565970   -0.040028   -5.507030
  H     -4.155278    0.095604   -6.068527
  H     -2.476250    0.774618   -4.355225
  H     -2.123072    3.583994   -0.848257
  H      0.252167    3.941151   -0.393467

ORBITAL ENERGIES
----------------

  NO   OCC          E(Eh)            E(eV)
   0   2.0000     -14.444158      -393.0455
   1   2.0000     -14.441359      -392.9694
   2   2.0000     -14.385423      -391.4473
   3   2.0000     -14.384298      -391.4166
   4   2.0000     -14.380835      -391.3224
   5   2.0000     -10.293070      -280.0887
   6   2.0000     -10.286185      -279.9013
   7   2.0000     -10.282680      -279.8059
   8   2.0000     -10.280160      -279.7374
   9   2.0000     -10.279520      -279.7200
  10   2.0000     -10.279377      -279.7161
  11   2.0000     -10.279333      -279.7149
  12   2.0000     -10.277712      -279.6708
  13   2.0000     -10.270397      -279.4717
  14   2.0000     -10.269878      -279.4576
  15   2.0000     -10.267551      -279.3943
  16   2.0000     -10.267210      -279.3850
  17   2.0000     -10.262456      -279.2556
  18   2.0000     -10.260767      -279.2097
  19   2.0000     -10.259806      -279.1835
  20   2.0000     -10.257064      -279.1089
  21   2.0000     -10.253678      -279.0168
  22   2.0000     -10.252971      -278.9975
  23   2.0000     -10.252046      -278.9724
  24   2.0000     -10.251898      -278.9683
  25   2.0000     -10.251520      -278.9580
  26   2.0000     -10.251161      -278.9483
  27   2.0000     -10.250573      -278.9323
  28   2.0000     -10.250458      -278.9292
  29   2.0000     -10.250192      -278.9219
  30   2.0000     -10.249799      -278.9112
  31   2.0000     -10.249061      -278.8911
  32   2.0000     -10.248985      -278.8891
  33   2.0000     -10.248034      -278.8632
  34   2.0000     -10.246307      -278.8162
  35   2.0000     -10.245185      -278.7857
  36   2.0000     -10.244606      -278.7699
  37   2.0000     -10.243957      -278.7522
  38   2.0000     -10.239837      -278.6401
  39   2.0000     -10.236966      -278.5620
  40   2.0000     -10.235102      -278.5113
  41   2.0000     -10.234972      -278.5078
  42   2.0000     -10.234839      -278.5041
  43   2.0000     -10.234418      -278.4927
  44   2.0000     -10.234016      -278.4817
  45   2.0000     -10.234016      -278.4817
  46   2.0000     -10.233254      -278.4610
  47   2.0000     -10.232933      -278.4523
  48   2.0000     -10.232766      -278.4477
  49   2.0000     -10.232207      -278.4325
  50   2.0000     -10.231303      -278.4079
  51   2.0000     -10.230779      -278.3937
  52   2.0000     -10.230616      -278.3892
  53   2.0000     -10.230434      -278.3843
  54   2.0000     -10.230099      -278.3752
  55   2.0000     -10.229705      -278.3644
  56   2.0000     -10.228737      -278.3381
  57   2.0000     -10.228192      -278.3232
  58   2.0000     -10.224920      -278.2342
  59   2.0000     -10.224484      -278.2224
  60   2.0000      -1.019491       -27.7418
  61   2.0000      -1.015313       -27.6281
  62   2.0000      -0.985805       -26.8251
  63   2.0000      -0.970841       -26.4179
  64   2.0000      -0.955563       -26.0022
  65   2.0000      -0.894593       -24.3431
  66   2.0000      -0.892959       -24.2986
  67   2.0000      -0.863769       -23.5043
  68   2.0000      -0.862835       -23.4789
  69   2.0000      -0.860931       -23.4271
  70   2.0000      -0.859770       -23.3955
  71   2.0000      -0.839079       -22.8325
  72   2.0000      -0.830438       -22.5974
  73   2.0000      -0.829293       -22.5662
  74   2.0000      -0.825057       -22.4509
  75   2.0000      -0.819364       -22.2960
  76   2.0000      -0.813293       -22.1308
  77   2.0000      -0.804190       -21.8831
  78   2.0000      -0.792156       -21.5557
  79   2.0000      -0.781942       -21.2777
  80   2.0000      -0.777010       -21.1435
  81   2.0000      -0.773931       -21.0597
  82   2.0000      -0.770077       -20.9549
  83   2.0000      -0.761485       -20.7211
  84   2.0000      -0.760703       -20.6998
  85   2.0000      -0.753045       -20.4914
  86   2.0000      -0.745096       -20.2751
  87   2.0000      -0.730167       -19.8689
  88   2.0000      -0.727293       -19.7907
  89   2.0000      -0.724334       -19.7101
  90   2.0000      -0.720082       -19.5944
  91   2.0000      -0.684694       -18.6315
  92   2.0000      -0.678954       -18.4753
  93   2.0000      -0.675269       -18.3750
  94   2.0000      -0.668852       -18.2004
  95   2.0000      -0.650318       -17.6961
  96   2.0000      -0.647892       -17.6300
  97   2.0000      -0.641014       -17.4429
  98   2.0000      -0.638881       -17.3848
  99   2.0000      -0.629112       -17.1190
 100   2.0000      -0.626935       -17.0598
 101   2.0000      -0.622580       -16.9413
 102   2.0000      -0.616982       -16.7889
 103   2.0000      -0.614086       -16.7101
 104   2.0000      -0.611375       -16.6364
 105   2.0000      -0.594758       -16.1842
 106   2.0000      -0.592034       -16.1101
 107   2.0000      -0.584270       -15.8988
 108   2.0000      -0.583430       -15.8759
 109   2.0000      -0.580423       -15.7941
 110   2.0000      -0.574402       -15.6303
 111   2.0000      -0.554051       -15.0765
 112   2.0000      -0.552186       -15.0257
 113   2.0000      -0.550904       -14.9909
 114   2.0000      -0.535599       -14.5744
 115   2.0000      -0.529583       -14.4107
 116   2.0000      -0.528345       -14.3770
 117   2.0000      -0.523904       -14.2562
 118   2.0000      -0.522871       -14.2280
 119   2.0000      -0.516333       -14.0501
 120   2.0000      -0.515158       -14.0182
 121   2.0000      -0.510208       -13.8835
 122   2.0000      -0.504537       -13.7292
 123   2.0000      -0.502687       -13.6788
 124   2.0000      -0.495750       -13.4901
 125   2.0000      -0.491911       -13.3856
 126   2.0000      -0.480853       -13.0847
 127   2.0000      -0.477964       -13.0061
 128   2.0000      -0.473478       -12.8840
 129   2.0000      -0.472012       -12.8441
 130   2.0000      -0.470090       -12.7918
 131   2.0000      -0.463539       -12.6135
 132   2.0000      -0.462916       -12.5966
 133   2.0000      -0.461585       -12.5604
 134   2.0000      -0.456724       -12.4281
 135   2.0000      -0.455454       -12.3935
 136   2.0000      -0.448811       -12.2128
 137   2.0000      -0.447486       -12.1767
 138   2.0000      -0.445272       -12.1165
 139   2.0000      -0.444774       -12.1029
 140   2.0000      -0.443849       -12.0777
 141   2.0000      -0.442483       -12.0406
 142   2.0000      -0.440863       -11.9965
 143   2.0000      -0.440008       -11.9732
 144   2.0000      -0.434967       -11.8360
 145   2.0000      -0.434295       -11.8178
 146   2.0000      -0.433440       -11.7945
 147   2.0000      -0.429618       -11.6905
 148   2.0000      -0.428216       -11.6524
 149   2.0000      -0.427503       -11.6330
 150   2.0000      -0.424482       -11.5507
 151   2.0000      -0.422932       -11.5086
 152   2.0000      -0.418261       -11.3815
 153   2.0000      -0.418117       -11.3775
 154   2.0000      -0.410309       -11.1651
 155   2.0000      -0.404693       -11.0122
 156   2.0000      -0.402607       -10.9555
 157   2.0000      -0.401464       -10.9244
 158   2.0000      -0.399641       -10.8748
 159   2.0000      -0.396573       -10.7913
 160   2.0000      -0.390916       -10.6374
 161   2.0000      -0.387537       -10.5454
 162   2.0000      -0.380390       -10.3509
 163   2.0000      -0.374955       -10.2030
 164   2.0000      -0.373174       -10.1546
 165   2.0000      -0.372201       -10.1281
 166   2.0000      -0.371094       -10.0980
 167   2.0000      -0.368568       -10.0293
 168   2.0000      -0.366064        -9.9611
 169   2.0000      -0.365010        -9.9324
 170   2.0000      -0.359490        -9.7822
 171   2.0000      -0.356748        -9.7076
 172   2.0000      -0.350664        -9.5421
 173   2.0000      -0.347907        -9.4670
 174   2.0000      -0.347331        -9.4514
 175   2.0000      -0.343945        -9.3592
 176   2.0000      -0.342366        -9.3163
 177   2.0000      -0.338712        -9.2168
 178   2.0000      -0.334398        -9.0994
 179   2.0000      -0.326260        -8.8780
 180   2.0000      -0.315997        -8.5987
 181   2.0000      -0.313765        -8.5380
 182   2.0000      -0.300562        -8.1787
 183   2.0000      -0.297143        -8.0857
 184   2.0000      -0.293842        -7.9959
 185   2.0000      -0.286145        -7.7864
 186   2.0000      -0.281721        -7.6660
 187   2.0000      -0.280783        -7.6405
 188   2.0000      -0.273330        -7.4377
 189   2.0000      -0.270245        -7.3537
 190   2.0000      -0.266917        -7.2632
 191   2.0000      -0.262615        -7.1461
 192   2.0000      -0.261488        -7.1155
 193   2.0000      -0.259949        -7.0736
 194   2.0000      -0.257635        -7.0106
 195   2.0000      -0.233096        -6.3429
 196   2.0000      -0.232409        -6.3242
 197   2.0000      -0.228496        -6.2177
 198   2.0000      -0.213878        -5.8199
 199   2.0000      -0.204659        -5.5690
 200   2.0000      -0.203379        -5.5342
 201   0.0000      -0.077067        -2.0971
 202   0.0000      -0.062250        -1.6939
 203   0.0000      -0.052375        -1.4252
 204   0.0000      -0.044981        -1.2240
 205   0.0000      -0.028301        -0.7701

Total SCF time: 0 days 1 hours 20 min 41 sec

-----------------------------------------------------------------------------
         ABSORPTION SPECTRUM VIA TRANSITION ELECTRIC DIPOLE MOMENTS
-----------------------------------------------------------------------------
State   Energy    Wavelength  fosc         T2        TX        TY        TZ
        (cm-1)      (nm)                 (au**2)    (au)      (au)      (au)
-----------------------------------------------------------------------------
   1   23783.1    420.5   0.347392075   4.80869  -2.09633  -0.48291  -0.42531
   2   23961.9    417.3   0.047844524   0.65734  -0.78573  -0.11451  -0.16385
   3   26140.2    382.6   0.000980415   0.01235  -0.08823  -0.03037  -0.06034
   4   26947.5    371.1   0.487801864   5.95937   2.41238  -0.30312  -0.21892
   5   27107.2    368.9   0.033267816   0.40403  -0.60911   0.15574   0.09357

Dispersion correction           -0.155646679
FINAL SINGLE POINT ENERGY     -2387.515795161460
Dispersion correction                    ... done

DIPOLE MOMENT
-------------
                                X             Y             Z
Electronic contribution:      2.79352      -1.34178      -0.97665
Nuclear contribution   :     -7.62768      -0.18418       0.46657
                        -----------------------------------------
Total Dipole Moment    :     -4.83416      -1.52596      -0.51008
                        -----------------------------------------
Magnitude (a.u.)       :      5.09488
Magnitude (Debye)      :     12.95017

Rotational constants in cm-1:     0.002492     0.000781     0.000728
Rotational constants in MHz :    74.714196    23.422398    21.817735

                             ****ORCA TERMINATED NORMALLY****
TOTAL RUN TIME: 0 days 2 hours 48 minutes 7 seconds 289 msec
