                         Program Version 5.0.3 -  RELEASE  -
|  1> ! PBE0 def2-SVP D3BJ def2/J RIJCOSX tightSCF noautostart miniprint nopop defgrid3
|  2> ! EnGrad
|  3> %maxcore    4000
|  4> %pal    nprocs  8  end
|  5> %tddft  PrintLevel  3
|  6> 	IRootMult	Triplet
|  7> 	TDA	True
|  8> 	NRoots	5
|  9>         MaxDim  10
| 10> end
| 11> * xyzfile 0 1 orcaopt.xyz
| 12>
| 13>
| 14>                          ****END OF INPUT****

CARTESIAN COORDINATES (ANGSTROEM)
---------------------------------
  C     -3.767307    0.625592    0.437353
  C     -2.863697   -0.223950   -0.174325
  C     -1.462743   -0.143604   -0.118005
  C     -0.719894    0.867028    0.604240
  N      0.572288    0.960019    0.668016
  C      1.390682    0.059291    0.022486
  C      2.774403    0.270003    0.169299
  C      3.786517   -0.494959   -0.378510
  C      5.196858   -0.264091   -0.216721
  C      5.738472    0.796182    0.545764
  C      7.105837    0.965693    0.670110
  C      7.993449    0.088281    0.026614
  N      9.380035    0.265098    0.149403
  C     10.296442   -0.720272    0.510538
  C     10.074841   -2.049756    0.876204
  C     11.181848   -2.817883    1.223863
  C     12.478746   -2.281066    1.217819
  C     12.691357   -0.951263    0.872317
  C     11.596018   -0.158474    0.518324
  C     11.452360    1.230142    0.141514
  C     12.360964    2.275764   -0.044634
  C     11.886703    3.518137   -0.450310
  C     10.516855    3.717731   -0.682231
  C      9.592005    2.693268   -0.504600
  C     10.071425    1.453180   -0.077304
  C      7.477458   -0.966866   -0.738548
  C      6.108021   -1.138970   -0.849378
  C      0.788968   -1.012678   -0.742407
  N      1.405718   -1.963960   -1.425591
  S      0.238659   -2.919211   -2.100469
  N     -1.088204   -2.121400   -1.535123
  C     -0.650011   -1.107821   -0.808685
  C     -5.198696    0.520770    0.362419
  C     -5.999812    1.456009    1.055731
  C     -7.382499    1.394607    1.023542
  C     -8.025631    0.394532    0.279841
  N     -9.424903    0.327801    0.236192
  C    -10.282336    1.389268   -0.049879
  C     -9.980759    2.708183   -0.395548
  C    -11.043508    3.565418   -0.664807
  C    -12.374765    3.125738   -0.601748
  C    -12.668390    1.805897   -0.277793
  C    -11.618825    0.925116   -0.002398
  C    -11.561233   -0.481293    0.329517
  C    -12.535958   -1.461382    0.535854
  C    -12.137318   -2.747715    0.881659
  C    -10.776731   -3.055790    1.034953
  C     -9.787080   -2.097804    0.836053
  C    -10.192118   -0.813139    0.467699
  C     -7.248367   -0.540352   -0.423642
  C     -5.867810   -0.481780   -0.378666
  H     -3.386829    1.456704    1.037869
  H     -3.241839   -1.058483   -0.772491
  H     -1.283792    1.631787    1.151599
  H      3.009530    1.140088    0.788651
  H      3.495217   -1.352251   -0.989987
  H      5.071534    1.487992    1.063285
  H      7.506416    1.772188    1.287014
  H      9.069866   -2.473451    0.899471
  H     11.033755   -3.861260    1.512091
  H     13.324911   -2.913346    1.494892
  H     13.698451   -0.527843    0.881539
  H     13.428700    2.114515    0.121334
  H     12.584376    4.345064   -0.598563
  H     10.165518    4.697320   -1.014781
  H      8.531754    2.855543   -0.703530
  H      8.163489   -1.636780   -1.259951
  H      5.714203   -1.960033   -1.453591
  H     -5.511004    2.235457    1.645976
  H     -7.980620    2.108694    1.592253
  H     -8.949611    3.057290   -0.464672
  H    -10.832564    4.602447   -0.936199
  H    -13.184317    3.826002   -0.817994
  H    -13.703463    1.457966   -0.244181
  H    -13.595444   -1.216002    0.431745
  H    -12.887302   -3.524620    1.044319
  H    -10.484159   -4.068562    1.321788
  H     -8.733792   -2.345349    0.974820
  H     -7.745786   -1.302698   -1.025869
  H     -5.292193   -1.216254   -0.944500

ORBITAL ENERGIES
----------------

  NO   OCC          E(Eh)            E(eV)
   0   2.0000     -89.110962     -2424.8326
   1   2.0000     -14.453502      -393.2998
   2   2.0000     -14.452751      -393.2793
   3   2.0000     -14.444522      -393.0554
   4   2.0000     -14.440576      -392.9481
   5   2.0000     -14.401499      -391.8847
   6   2.0000     -10.302890      -280.3559
   7   2.0000     -10.302552      -280.3467
   8   2.0000     -10.298340      -280.2321
   9   2.0000     -10.298048      -280.2241
  10   2.0000     -10.296077      -280.1705
  11   2.0000     -10.284119      -279.8451
  12   2.0000     -10.279783      -279.7271
  13   2.0000     -10.279708      -279.7251
  14   2.0000     -10.279303      -279.7140
  15   2.0000     -10.279240      -279.7123
  16   2.0000     -10.268452      -279.4188
  17   2.0000     -10.261921      -279.2411
  18   2.0000     -10.261515      -279.2300
  19   2.0000     -10.258982      -279.1611
  20   2.0000     -10.257499      -279.1207
  21   2.0000     -10.257243      -279.1138
  22   2.0000     -10.256591      -279.0960
  23   2.0000     -10.256496      -279.0935
  24   2.0000     -10.256321      -279.0887
  25   2.0000     -10.256039      -279.0810
  26   2.0000     -10.255871      -279.0764
  27   2.0000     -10.255373      -279.0629
  28   2.0000     -10.255091      -279.0552
  29   2.0000     -10.254831      -279.0481
  30   2.0000     -10.249733      -278.9094
  31   2.0000     -10.243104      -278.7290
  32   2.0000     -10.243015      -278.7266
  33   2.0000     -10.242964      -278.7252
  34   2.0000     -10.242906      -278.7236
  35   2.0000     -10.242714      -278.7184
  36   2.0000     -10.242604      -278.7154
  37   2.0000     -10.242588      -278.7150
  38   2.0000     -10.242543      -278.7138
  39   2.0000     -10.242223      -278.7051
  40   2.0000     -10.242009      -278.6992
  41   2.0000     -10.241784      -278.6931
  42   2.0000     -10.241573      -278.6874
  43   2.0000     -10.241486      -278.6850
  44   2.0000     -10.241379      -278.6821
  45   2.0000     -10.241095      -278.6744
  46   2.0000     -10.241069      -278.6737
  47   2.0000     -10.235576      -278.5242
  48   2.0000     -10.235491      -278.5219
  49   2.0000     -10.235166      -278.5130
  50   2.0000     -10.235159      -278.5128
  51   2.0000      -8.108193      -220.6352
  52   2.0000      -6.051480      -164.6691
  53   2.0000      -6.044222      -164.4716
  54   2.0000      -6.042541      -164.4259
  55   2.0000      -1.062707       -28.9177
  56   2.0000      -1.027070       -27.9480
  57   2.0000      -1.026119       -27.9221
  58   2.0000      -0.974663       -26.5219
  59   2.0000      -0.930305       -25.3149
  60   2.0000      -0.904822       -24.6215
  61   2.0000      -0.904105       -24.6020
  62   2.0000      -0.874461       -23.7953
  63   2.0000      -0.874080       -23.7849
  64   2.0000      -0.872126       -23.7318
  65   2.0000      -0.871763       -23.7219
  66   2.0000      -0.850294       -23.1377
  67   2.0000      -0.837903       -22.8005
  68   2.0000      -0.824527       -22.4365
  69   2.0000      -0.815424       -22.1888
  70   2.0000      -0.802228       -21.8297
  71   2.0000      -0.789638       -21.4872
  72   2.0000      -0.785666       -21.3790
  73   2.0000      -0.784996       -21.3608
  74   2.0000      -0.774789       -21.0831
  75   2.0000      -0.771674       -20.9983
  76   2.0000      -0.771089       -20.9824
  77   2.0000      -0.756751       -20.5923
  78   2.0000      -0.744394       -20.2560
  79   2.0000      -0.738445       -20.0941
  80   2.0000      -0.738090       -20.0845
  81   2.0000      -0.720793       -19.6138
  82   2.0000      -0.704682       -19.1754
  83   2.0000      -0.679446       -18.4887
  84   2.0000      -0.674320       -18.3492
  85   2.0000      -0.661000       -17.9867
  86   2.0000      -0.652551       -17.7568
  87   2.0000      -0.650429       -17.6991
  88   2.0000      -0.648214       -17.6388
  89   2.0000      -0.642012       -17.4700
  90   2.0000      -0.625479       -17.0201
  91   2.0000      -0.624433       -16.9917
  92   2.0000      -0.623853       -16.9759
  93   2.0000      -0.611148       -16.6302
  94   2.0000      -0.599758       -16.3202
  95   2.0000      -0.595975       -16.2173
  96   2.0000      -0.594418       -16.1749
  97   2.0000      -0.593718       -16.1559
  98   2.0000      -0.573545       -15.6070
  99   2.0000      -0.565204       -15.3800
 100   2.0000      -0.561600       -15.2819
 101   2.0000      -0.556666       -15.1477
 102   2.0000      -0.541700       -14.7404
 103   2.0000      -0.538231       -14.6460
 104   2.0000      -0.537326       -14.6214
 105   2.0000      -0.527199       -14.3458
 106   2.0000      -0.524331       -14.2678
 107   2.0000      -0.515728       -14.0337
 108   2.0000      -0.512187       -13.9373
 109   2.0000      -0.504409       -13.7257
 110   2.0000      -0.492363       -13.3979
 111   2.0000      -0.490527       -13.3479
 112   2.0000      -0.484216       -13.1762
 113   2.0000      -0.482415       -13.1272
 114   2.0000      -0.478278       -13.0146
 115   2.0000      -0.474306       -12.9065
 116   2.0000      -0.473140       -12.8748
 117   2.0000      -0.472110       -12.8468
 118   2.0000      -0.469208       -12.7678
 119   2.0000      -0.464574       -12.6417
 120   2.0000      -0.457055       -12.4371
 121   2.0000      -0.455560       -12.3964
 122   2.0000      -0.454530       -12.3684
 123   2.0000      -0.453721       -12.3464
 124   2.0000      -0.452268       -12.3068
 125   2.0000      -0.449806       -12.2398
 126   2.0000      -0.445180       -12.1140
 127   2.0000      -0.444841       -12.1047
 128   2.0000      -0.442826       -12.0499
 129   2.0000      -0.438666       -11.9367
 130   2.0000      -0.437978       -11.9180
 131   2.0000      -0.434236       -11.8162
 132   2.0000      -0.432776       -11.7764
 133   2.0000      -0.420831       -11.4514
 134   2.0000      -0.420296       -11.4368
 135   2.0000      -0.410799       -11.1784
 136   2.0000      -0.409319       -11.1381
 137   2.0000      -0.407173       -11.0797
 138   2.0000      -0.403881       -10.9902
 139   2.0000      -0.400473       -10.8974
 140   2.0000      -0.395042       -10.7497
 141   2.0000      -0.384107       -10.4521
 142   2.0000      -0.382741       -10.4149
 143   2.0000      -0.381410       -10.3787
 144   2.0000      -0.380925       -10.3655
 145   2.0000      -0.380880       -10.3643
 146   2.0000      -0.376669       -10.2497
 147   2.0000      -0.376197       -10.2368
 148   2.0000      -0.372898       -10.1471
 149   2.0000      -0.369048       -10.0423
 150   2.0000      -0.359151        -9.7730
 151   2.0000      -0.358611        -9.7583
 152   2.0000      -0.354205        -9.6384
 153   2.0000      -0.353847        -9.6287
 154   2.0000      -0.352451        -9.5907
 155   2.0000      -0.351188        -9.5563
 156   2.0000      -0.345171        -9.3926
 157   2.0000      -0.332356        -9.0439
 158   2.0000      -0.326437        -8.8828
 159   2.0000      -0.325543        -8.8585
 160   2.0000      -0.310260        -8.4426
 161   2.0000      -0.301846        -8.2136
 162   2.0000      -0.300828        -8.1859
 163   2.0000      -0.290652        -7.9090
 164   2.0000      -0.287453        -7.8220
 165   2.0000      -0.286652        -7.8002
 166   2.0000      -0.279983        -7.6187
 167   2.0000      -0.273090        -7.4312
 168   2.0000      -0.272705        -7.4207
 169   2.0000      -0.262378        -7.1397
 170   2.0000      -0.233540        -6.3550
 171   2.0000      -0.233216        -6.3461
 172   2.0000      -0.227821        -6.1993
 173   2.0000      -0.218292        -5.9400
 174   2.0000      -0.199585        -5.4310
 175   0.0000      -0.123325        -3.3558
 176   0.0000      -0.067133        -1.8268
 177   0.0000      -0.050926        -1.3858
 178   0.0000      -0.035615        -0.9691
 179   0.0000      -0.035262        -0.9595

Total SCF time: 0 days 0 hours 44 min 5 sec

-----------------------------------------------------------------------------
         ABSORPTION SPECTRUM VIA TRANSITION ELECTRIC DIPOLE MOMENTS
-----------------------------------------------------------------------------
State   Energy    Wavelength  fosc         T2        TX        TY        TZ
        (cm-1)      (nm)                 (au**2)    (au)      (au)      (au)
-----------------------------------------------------------------------------
   1   15473.5    646.3   1.606260837  34.17451  -5.84565   0.03611   0.03986
   2   18220.0    548.8   0.017422112   0.31480   0.42962   0.29316   0.21043
   3   20734.7    482.3   0.054831720   0.87058  -0.93164   0.04166   0.02976
   4   21230.7    471.0   0.000025700   0.00040  -0.00314   0.01834  -0.00722
   5   21342.8    468.5   0.000021766   0.00034   0.00223  -0.01695   0.00660
   6    7020.9   1424.3   spin forbidden (mult=3)
   7   16076.7    622.0   spin forbidden (mult=3)
   8   18011.6    555.2   spin forbidden (mult=3)
   9   19635.8    509.3   spin forbidden (mult=3)
  10   21071.3    474.6   spin forbidden (mult=3)

Dispersion correction           -0.109967787
FINAL SINGLE POINT ENERGY     -2400.296472549625
Dispersion correction                    ... done

DIPOLE MOMENT
-------------
                                X             Y             Z
Electronic contribution:      1.05112      -8.60945      -6.10557
Nuclear contribution   :     -1.82848       8.88761       6.31397
                        -----------------------------------------
Total Dipole Moment    :     -0.77736       0.27816       0.20840
                        -----------------------------------------
Magnitude (a.u.)       :      0.85153
Magnitude (Debye)      :      2.16441

Rotational constants in cm-1:     0.006334     0.000343     0.000331
Rotational constants in MHz :   189.893481    10.277146     9.919815

                             ****ORCA TERMINATED NORMALLY****
TOTAL RUN TIME: 0 days 1 hours 44 minutes 13 seconds 649 msec
