                         Program Version 5.0.3 -  RELEASE  -
|  1> ! PBE0 def2-SVP D3BJ def2/J RIJCOSX tightSCF noautostart miniprint nopop defgrid3
|  2> ! EnGrad
|  3> %maxcore    4000
|  4> %pal    nprocs  8  end
|  5> %tddft  PrintLevel  3
|  6> 	IRootMult	Triplet
|  7> 	TDA	True
|  8> 	NRoots	5
|  9>         MaxDim  10
| 10> end
| 11> * xyzfile 0 1 orcaopt.xyz
| 12>
| 13>
| 14>                          ****END OF INPUT****

CARTESIAN COORDINATES (ANGSTROEM)
---------------------------------
  C      2.333210    2.130140   -0.716378
  C      2.948607    3.303716   -0.149254
  C      4.335991    3.423694    0.073851
  C      4.895933    4.628738    0.598792
  C      6.259886    4.711017    0.788595
  C      7.061451    3.607451    0.464822
  C      6.430891    2.448860   -0.037371
  C      7.231034    1.234228   -0.372130
  C      8.474096    1.335548   -1.012287
  C      9.150139    0.161168   -1.325131
  C      8.579652   -1.060069   -0.982954
  C      7.339502   -1.061756   -0.326856
  C      6.665951   -2.331819    0.074861
  C      7.389195   -3.520414    0.265002
  C      6.691031   -4.671668    0.617151
  C      5.312501   -4.606579    0.775574
  C      4.671202   -3.369453    0.586687
  C      3.226392   -3.243224    0.776501
  C      2.580716   -2.061191    0.808450
  C      1.136526   -1.898092    0.971662
  C      0.600611   -0.685172    1.435181
  C     -0.771334   -0.503303    1.584241
  C     -1.654649   -1.537733    1.250649
  N     -3.053452   -1.382203    1.316030
  C     -3.929915   -1.774262    0.303576
  C     -3.647484   -2.195444   -0.997660
  C     -4.715041   -2.508125   -1.830294
  C     -6.041574   -2.399343   -1.384748
  C     -6.321226   -1.956715   -0.096672
  C     -5.261303   -1.629044    0.756385
  C     -5.182474   -1.097581    2.097982
  C     -6.147769   -0.724862    3.036545
  C     -5.735354   -0.242694    4.274748
  C     -4.368094   -0.140353    4.578481
  C     -3.386522   -0.499371    3.656883
  C     -3.805589   -0.961553    2.408037
  C     -1.131522   -2.761123    0.809707
  C      0.234825   -2.931559    0.664601
  N      5.349525   -2.274687    0.237444
  N      6.693090    0.065608   -0.039786
  N      5.129191    2.359986   -0.228096
  C      0.961245    1.976578   -0.934281
  C      0.434338    0.784409   -1.543245
  C     -0.914040    0.588933   -1.721960
  C     -1.845828    1.569036   -1.288359
  N     -3.228038    1.372900   -1.373490
  C     -4.137315    1.707220   -0.363908
  C     -3.893490    2.130308    0.943697
  C     -4.986068    2.375700    1.766600
  C     -6.298693    2.190098    1.308316
  C     -6.538960    1.733644    0.016361
  C     -5.452954    1.478906   -0.826506
  C     -5.332628    0.949840   -2.166854
  C     -6.268634    0.516249   -3.107327
  C     -5.821221    0.064542   -4.345754
  C     -4.450468    0.058780   -4.647202
  C     -3.497707    0.481388   -3.721736
  C     -3.949660    0.902742   -2.470174
  C     -1.352526    2.773284   -0.738977
  C     -0.005456    2.978765   -0.569541
  H      3.012804    1.321647   -0.994009
  H      2.333311    4.167553    0.114380
  H      4.238204    5.468462    0.839491
  H      6.712054    5.620605    1.193539
  H      8.141550    3.627668    0.625711
  H      8.884036    2.311966   -1.282115
  H     10.110677    0.196018   -1.846663
  H      9.079356   -1.995990   -1.241967
  H      8.475734   -3.540685    0.158975
  H      7.223537   -5.613699    0.774901
  H      4.733165   -5.491506    1.052138
  H      2.678885   -4.180062    0.928370
  H      3.187388   -1.154825    0.710534
  H      1.280068    0.138671    1.672161
  H     -1.156398    0.456970    1.933343
  H     -2.618040   -2.249053   -1.347331
  H     -4.517144   -2.817132   -2.860098
  H     -6.853117   -2.626348   -2.078854
  H     -7.354538   -1.838395    0.240887
  H     -7.209815   -0.799247    2.782678
  H     -6.476988    0.057986    5.019464
  H     -4.063319    0.228686    5.561829
  H     -2.326431   -0.424095    3.907913
  H     -1.814992   -3.580599    0.577681
  H      0.612517   -3.886207    0.290199
  H      1.139802    0.006585   -1.848912
  H     -1.272080   -0.341483   -2.166180
  H     -2.875778    2.232462    1.313671
  H     -4.815797    2.685692    2.800814
  H     -7.129505    2.365000    1.995364
  H     -7.559566    1.549096   -0.329854
  H     -7.334072    0.520521   -2.855511
  H     -6.539260   -0.284361   -5.092536
  H     -4.118760   -0.282294   -5.631818
  H     -2.435998    0.486333   -3.975297
  H     -2.062676    3.559425   -0.474156
  H      0.332890    3.931839   -0.160040

ORBITAL ENERGIES
----------------

  NO   OCC          E(Eh)            E(eV)
   0   2.0000     -14.447766      -393.1437
   1   2.0000     -14.442823      -393.0092
   2   2.0000     -14.382637      -391.3715
   3   2.0000     -14.380727      -391.3195
   4   2.0000     -14.380561      -391.3150
   5   2.0000     -10.292521      -280.0737
   6   2.0000     -10.286070      -279.8982
   7   2.0000     -10.278789      -279.7001
   8   2.0000     -10.278471      -279.6914
   9   2.0000     -10.277371      -279.6615
  10   2.0000     -10.277343      -279.6607
  11   2.0000     -10.277080      -279.6536
  12   2.0000     -10.275949      -279.6228
  13   2.0000     -10.272903      -279.5399
  14   2.0000     -10.271083      -279.4904
  15   2.0000     -10.270554      -279.4760
  16   2.0000     -10.268554      -279.4216
  17   2.0000     -10.260901      -279.2133
  18   2.0000     -10.258783      -279.1557
  19   2.0000     -10.257011      -279.1075
  20   2.0000     -10.252659      -278.9890
  21   2.0000     -10.252027      -278.9718
  22   2.0000     -10.251397      -278.9547
  23   2.0000     -10.250000      -278.9167
  24   2.0000     -10.249244      -278.8961
  25   2.0000     -10.249232      -278.8958
  26   2.0000     -10.249037      -278.8905
  27   2.0000     -10.249034      -278.8904
  28   2.0000     -10.247999      -278.8622
  29   2.0000     -10.247850      -278.8582
  30   2.0000     -10.247629      -278.8522
  31   2.0000     -10.247492      -278.8484
  32   2.0000     -10.247231      -278.8413
  33   2.0000     -10.245659      -278.7985
  34   2.0000     -10.245048      -278.7819
  35   2.0000     -10.244412      -278.7646
  36   2.0000     -10.244122      -278.7567
  37   2.0000     -10.243757      -278.7468
  38   2.0000     -10.239827      -278.6399
  39   2.0000     -10.236938      -278.5612
  40   2.0000     -10.236670      -278.5540
  41   2.0000     -10.236536      -278.5503
  42   2.0000     -10.236160      -278.5401
  43   2.0000     -10.235335      -278.5176
  44   2.0000     -10.234822      -278.5037
  45   2.0000     -10.234796      -278.5030
  46   2.0000     -10.234682      -278.4999
  47   2.0000     -10.234446      -278.4934
  48   2.0000     -10.234300      -278.4895
  49   2.0000     -10.233938      -278.4796
  50   2.0000     -10.233579      -278.4698
  51   2.0000     -10.233064      -278.4558
  52   2.0000     -10.232188      -278.4320
  53   2.0000     -10.232073      -278.4289
  54   2.0000     -10.231658      -278.4176
  55   2.0000     -10.230946      -278.3982
  56   2.0000     -10.230153      -278.3766
  57   2.0000     -10.228066      -278.3198
  58   2.0000     -10.227965      -278.3171
  59   2.0000     -10.226091      -278.2661
  60   2.0000      -1.018752       -27.7216
  61   2.0000      -1.015254       -27.6265
  62   2.0000      -0.984226       -26.7822
  63   2.0000      -0.968622       -26.3576
  64   2.0000      -0.953483       -25.9456
  65   2.0000      -0.894497       -24.3405
  66   2.0000      -0.892016       -24.2730
  67   2.0000      -0.865770       -23.5588
  68   2.0000      -0.865203       -23.5434
  69   2.0000      -0.862413       -23.4675
  70   2.0000      -0.861797       -23.4507
  71   2.0000      -0.836779       -22.7699
  72   2.0000      -0.829033       -22.5591
  73   2.0000      -0.827392       -22.5145
  74   2.0000      -0.822985       -22.3946
  75   2.0000      -0.817902       -22.2563
  76   2.0000      -0.813014       -22.1232
  77   2.0000      -0.805002       -21.9052
  78   2.0000      -0.791204       -21.5298
  79   2.0000      -0.782636       -21.2966
  80   2.0000      -0.778217       -21.1764
  81   2.0000      -0.773659       -21.0523
  82   2.0000      -0.769077       -20.9277
  83   2.0000      -0.763574       -20.7779
  84   2.0000      -0.761217       -20.7138
  85   2.0000      -0.753641       -20.5076
  86   2.0000      -0.746610       -20.3163
  87   2.0000      -0.730926       -19.8895
  88   2.0000      -0.728354       -19.8195
  89   2.0000      -0.724182       -19.7060
  90   2.0000      -0.717383       -19.5210
  91   2.0000      -0.685339       -18.6490
  92   2.0000      -0.677813       -18.4442
  93   2.0000      -0.675142       -18.3715
  94   2.0000      -0.668072       -18.1792
  95   2.0000      -0.648957       -17.6590
  96   2.0000      -0.647553       -17.6208
  97   2.0000      -0.641125       -17.4459
  98   2.0000      -0.639148       -17.3921
  99   2.0000      -0.629352       -17.1255
 100   2.0000      -0.626858       -17.0577
 101   2.0000      -0.621624       -16.9152
 102   2.0000      -0.614882       -16.7318
 103   2.0000      -0.613805       -16.7025
 104   2.0000      -0.610453       -16.6113
 105   2.0000      -0.596547       -16.2329
 106   2.0000      -0.592152       -16.1133
 107   2.0000      -0.586818       -15.9681
 108   2.0000      -0.585005       -15.9188
 109   2.0000      -0.578940       -15.7537
 110   2.0000      -0.573496       -15.6056
 111   2.0000      -0.554468       -15.0879
 112   2.0000      -0.552095       -15.0233
 113   2.0000      -0.550940       -14.9918
 114   2.0000      -0.534231       -14.5372
 115   2.0000      -0.530916       -14.4470
 116   2.0000      -0.528856       -14.3909
 117   2.0000      -0.524080       -14.2609
 118   2.0000      -0.522360       -14.2141
 119   2.0000      -0.516102       -14.0438
 120   2.0000      -0.513889       -13.9836
 121   2.0000      -0.509836       -13.8733
 122   2.0000      -0.503090       -13.6898
 123   2.0000      -0.501536       -13.6475
 124   2.0000      -0.494203       -13.4479
 125   2.0000      -0.490345       -13.3430
 126   2.0000      -0.480127       -13.0649
 127   2.0000      -0.478584       -13.0229
 128   2.0000      -0.474568       -12.9136
 129   2.0000      -0.471929       -12.8418
 130   2.0000      -0.469485       -12.7753
 131   2.0000      -0.466338       -12.6897
 132   2.0000      -0.463886       -12.6230
 133   2.0000      -0.461238       -12.5509
 134   2.0000      -0.457269       -12.4429
 135   2.0000      -0.455792       -12.4027
 136   2.0000      -0.449875       -12.2417
 137   2.0000      -0.447530       -12.1779
 138   2.0000      -0.445311       -12.1175
 139   2.0000      -0.444044       -12.0831
 140   2.0000      -0.443268       -12.0619
 141   2.0000      -0.441766       -12.0211
 142   2.0000      -0.440712       -11.9924
 143   2.0000      -0.439189       -11.9509
 144   2.0000      -0.437550       -11.9063
 145   2.0000      -0.435330       -11.8459
 146   2.0000      -0.432796       -11.7770
 147   2.0000      -0.428550       -11.6615
 148   2.0000      -0.427577       -11.6350
 149   2.0000      -0.426952       -11.6180
 150   2.0000      -0.425434       -11.5766
 151   2.0000      -0.422159       -11.4875
 152   2.0000      -0.417498       -11.3607
 153   2.0000      -0.416208       -11.3256
 154   2.0000      -0.408758       -11.1229
 155   2.0000      -0.405857       -11.0439
 156   2.0000      -0.400868       -10.9082
 157   2.0000      -0.398584       -10.8460
 158   2.0000      -0.397096       -10.8055
 159   2.0000      -0.395865       -10.7720
 160   2.0000      -0.389733       -10.6052
 161   2.0000      -0.387917       -10.5558
 162   2.0000      -0.379680       -10.3316
 163   2.0000      -0.377334       -10.2678
 164   2.0000      -0.375664       -10.2223
 165   2.0000      -0.374903       -10.2016
 166   2.0000      -0.373096       -10.1525
 167   2.0000      -0.372356       -10.1323
 168   2.0000      -0.367575       -10.0022
 169   2.0000      -0.361253        -9.8302
 170   2.0000      -0.359454        -9.7813
 171   2.0000      -0.356485        -9.7004
 172   2.0000      -0.353038        -9.6067
 173   2.0000      -0.347928        -9.4676
 174   2.0000      -0.346992        -9.4421
 175   2.0000      -0.346732        -9.4351
 176   2.0000      -0.344588        -9.3767
 177   2.0000      -0.337993        -9.1972
 178   2.0000      -0.332465        -9.0468
 179   2.0000      -0.323014        -8.7896
 180   2.0000      -0.314913        -8.5692
 181   2.0000      -0.311715        -8.4822
 182   2.0000      -0.298144        -8.1129
 183   2.0000      -0.296262        -8.0617
 184   2.0000      -0.293194        -7.9782
 185   2.0000      -0.290143        -7.8952
 186   2.0000      -0.283435        -7.7127
 187   2.0000      -0.278887        -7.5889
 188   2.0000      -0.271324        -7.3831
 189   2.0000      -0.268777        -7.3138
 190   2.0000      -0.268644        -7.3102
 191   2.0000      -0.263387        -7.1671
 192   2.0000      -0.260364        -7.0849
 193   2.0000      -0.258337        -7.0297
 194   2.0000      -0.256903        -6.9907
 195   2.0000      -0.233378        -6.3505
 196   2.0000      -0.230617        -6.2754
 197   2.0000      -0.226522        -6.1640
 198   2.0000      -0.217048        -5.9062
 199   2.0000      -0.205754        -5.5988
 200   2.0000      -0.197937        -5.3861
 201   0.0000      -0.079920        -2.1747
 202   0.0000      -0.061864        -1.6834
 203   0.0000      -0.051277        -1.3953
 204   0.0000      -0.042585        -1.1588
 205   0.0000      -0.029220        -0.7951

Total SCF time: 0 days 1 hours 14 min 14 sec

-----------------------------------------------------------------------------
         ABSORPTION SPECTRUM VIA TRANSITION ELECTRIC DIPOLE MOMENTS
-----------------------------------------------------------------------------
State   Energy    Wavelength  fosc         T2        TX        TY        TZ
        (cm-1)      (nm)                 (au**2)    (au)      (au)      (au)
-----------------------------------------------------------------------------
   1   22804.6    438.5   0.271004894   3.91228   1.90202   0.44348   0.31290
   2   23972.4    417.1   0.476097756   6.53823   2.45102   0.57235   0.45071
   3   25680.2    389.4   0.078054342   1.00063   0.97633  -0.21744  -0.01115
   4   26101.0    383.1   0.000140221   0.00177  -0.02715   0.00264   0.03201
   5   27299.1    366.3   0.585675176   7.06292   2.64342  -0.22150  -0.16176
   6   13445.6    743.7   spin forbidden (mult=3)
   7   20254.2    493.7   spin forbidden (mult=3)
   8   22833.3    438.0   spin forbidden (mult=3)
   9   24083.0    415.2   spin forbidden (mult=3)
  10   25566.2    391.1   spin forbidden (mult=3)

Dispersion correction           -0.158464057
FINAL SINGLE POINT ENERGY     -2387.557444142761
Dispersion correction                    ... done

DIPOLE MOMENT
-------------
                                X             Y             Z
Electronic contribution:      9.10533       0.12329      -0.40694
Nuclear contribution   :     -7.83487      -0.17390       0.32185
                        -----------------------------------------
Total Dipole Moment    :      1.27046      -0.05061      -0.08510
                        -----------------------------------------
Magnitude (a.u.)       :      1.27432
Magnitude (Debye)      :      3.23905

Rotational constants in cm-1:     0.002628     0.000783     0.000728
Rotational constants in MHz :    78.780671    23.468262    21.811581

                             ****ORCA TERMINATED NORMALLY****
TOTAL RUN TIME: 0 days 3 hours 16 minutes 34 seconds 166 msec
