                         Program Version 5.0.3 -  RELEASE  -
|  1> ! PBE0 def2-SVP D3BJ def2/J RIJCOSX tightSCF noautostart miniprint nopop defgrid3
|  2> ! EnGrad
|  3> %maxcore    4000
|  4> %pal    nprocs  8  end
|  5> %tddft  PrintLevel  3
|  6> 	IRootMult	Triplet
|  7> 	TDA	True
|  8> 	NRoots	5
|  9>         MaxDim  10
| 10> end
| 11> * xyzfile 0 1 orcaopt.xyz
| 12>
| 13>
| 14>                          ****END OF INPUT****

CARTESIAN COORDINATES (ANGSTROEM)
---------------------------------
  O      0.000034    0.928370   -0.000903
  C      0.000072   -0.288841    0.000756
  C      1.169516   -1.202273    0.008569
  C      2.500932   -0.884329    0.015474
  C      3.472340   -1.920819    0.023869
  C      4.876935   -1.671975    0.029922
  C      5.489086   -0.443014    0.014871
  C      6.907892   -0.188339    0.023295
  C      7.366371    1.146146   -0.028108
  C      8.717133    1.453001   -0.033341
  C      9.671391    0.428589    0.029141
  N     11.042012    0.730472    0.032151
  C     11.672021    1.642710    0.875813
  C     11.137098    2.413573    1.910189
  C     12.007409    3.232783    2.622808
  C     13.377981    3.282915    2.324236
  C     13.908586    2.498487    1.306358
  C     13.055392    1.667355    0.574981
  C     13.264790    0.725341   -0.501880
  C     14.390462    0.330325   -1.230142
  C     14.241492   -0.602216   -2.250539
  C     12.977384   -1.130919   -2.554842
  C     11.841190   -0.753753   -1.845482
  C     11.999787    0.167905   -0.808323
  C      9.237557   -0.905109    0.091002
  C      7.887038   -1.205855    0.081672
  C      3.004280   -3.283927    0.026097
  C      1.670866   -3.610746    0.017967
  C      0.707925   -2.570284    0.008476
  C     -0.707641   -2.570339   -0.000680
  C     -1.670520   -3.610879   -0.007296
  C     -3.003953   -3.284160   -0.016237
  C     -3.472095   -1.921080   -0.017662
  C     -4.876712   -1.672349   -0.024241
  C     -5.488952   -0.443404   -0.012273
  C     -6.907785   -0.188870   -0.021279
  C     -7.366390    1.145677    0.027228
  C     -8.717182    1.452417    0.031744
  C     -9.671338    0.427782   -0.028590
  N    -11.041993    0.729511   -0.032379
  C    -11.671981    1.640033   -0.877902
  C    -11.137053    2.408682   -1.913925
  C    -12.007341    3.226442   -2.628231
  C    -13.377899    3.277280   -2.329712
  C    -13.908512    2.495026   -1.310167
  C    -13.055339    1.665386   -0.577071
  C    -13.264746    0.725634    0.501763
  C    -14.390421    0.332179    1.230863
  C    -14.241474   -0.598254    2.253187
  C    -12.977384   -1.126381    2.558558
  C    -11.841188   -0.750743    1.848390
  C    -11.999761    0.168770    0.809327
  C     -9.237376   -0.906005   -0.087551
  C     -7.886830   -1.206604   -0.077503
  C     -2.500753   -0.884515   -0.012179
  C     -1.169315   -1.202363   -0.004497
  H      2.788228    0.169478    0.015789
  H      5.509715   -2.565324    0.044470
  H      4.859307    0.451142   -0.010033
  H      6.632773    1.954604   -0.083303
  H      9.047598    2.490774   -0.104724
  H     10.076274    2.371437    2.161029
  H     11.612005    3.846453    3.435638
  H     14.031810    3.938679    2.903045
  H     14.977578    2.525441    1.082461
  H     15.371266    0.754240   -1.002284
  H     15.112103   -0.921555   -2.827254
  H     12.878730   -1.851504   -3.370115
  H     10.861120   -1.158821   -2.101350
  H      9.977772   -1.703782    0.166810
  H      7.582731   -2.252441    0.140774
  H      3.754248   -4.079198    0.033699
  H      1.359270   -4.657704    0.019213
  H     -1.358866   -4.657820   -0.005711
  H     -3.753873   -4.079494   -0.021633
  H     -5.509426   -2.565779   -0.036404
  H     -4.859240    0.450860    0.010391
  H     -6.632869    1.954320    0.080724
  H     -9.047744    2.490310    0.100887
  H    -10.076240    2.365947   -2.164713
  H    -11.611936    3.838377   -3.442368
  H    -14.031713    3.931862   -2.909874
  H    -14.977495    2.522509   -1.086293
  H    -15.371211    0.755663    1.002145
  H    -15.112088   -0.916358    2.830579
  H    -12.878745   -1.845280    3.375319
  H    -10.861134   -1.155330    2.105078
  H     -9.977520   -1.704900   -0.161694
  H     -7.582410   -2.253281   -0.134369
  H     -2.788102    0.169272   -0.015370

ORBITAL ENERGIES
----------------

  NO   OCC          E(Eh)            E(eV)
   0   2.0000     -19.214245      -522.8462
   1   2.0000     -14.451370      -393.2418
   2   2.0000     -14.451369      -393.2417
   3   2.0000     -10.328511      -281.0531
   4   2.0000     -10.294982      -280.1407
   5   2.0000     -10.294982      -280.1407
   6   2.0000     -10.278333      -279.6877
   7   2.0000     -10.278332      -279.6876
   8   2.0000     -10.278221      -279.6846
   9   2.0000     -10.278220      -279.6846
  10   2.0000     -10.267380      -279.3896
  11   2.0000     -10.267373      -279.3894
  12   2.0000     -10.266937      -279.3775
  13   2.0000     -10.266665      -279.3702
  14   2.0000     -10.262166      -279.2477
  15   2.0000     -10.262159      -279.2475
  16   2.0000     -10.261550      -279.2310
  17   2.0000     -10.261549      -279.2310
  18   2.0000     -10.261022      -279.2166
  19   2.0000     -10.260920      -279.2138
  20   2.0000     -10.260275      -279.1963
  21   2.0000     -10.260256      -279.1958
  22   2.0000     -10.256458      -279.0924
  23   2.0000     -10.256457      -279.0924
  24   2.0000     -10.256200      -279.0854
  25   2.0000     -10.256200      -279.0854
  26   2.0000     -10.255395      -279.0635
  27   2.0000     -10.255394      -279.0635
  28   2.0000     -10.255345      -279.0621
  29   2.0000     -10.255345      -279.0621
  30   2.0000     -10.255221      -279.0587
  31   2.0000     -10.255219      -279.0587
  32   2.0000     -10.254320      -279.0342
  33   2.0000     -10.254320      -279.0342
  34   2.0000     -10.252450      -278.9833
  35   2.0000     -10.252426      -278.9827
  36   2.0000     -10.241903      -278.6964
  37   2.0000     -10.241903      -278.6963
  38   2.0000     -10.241801      -278.6936
  39   2.0000     -10.241801      -278.6936
  40   2.0000     -10.241679      -278.6903
  41   2.0000     -10.241679      -278.6902
  42   2.0000     -10.241522      -278.6860
  43   2.0000     -10.241521      -278.6860
  44   2.0000     -10.240842      -278.6675
  45   2.0000     -10.240842      -278.6675
  46   2.0000     -10.240603      -278.6610
  47   2.0000     -10.240603      -278.6610
  48   2.0000     -10.240417      -278.6559
  49   2.0000     -10.240417      -278.6559
  50   2.0000     -10.240130      -278.6481
  51   2.0000     -10.240130      -278.6481
  52   2.0000     -10.234392      -278.4920
  53   2.0000     -10.234392      -278.4920
  54   2.0000     -10.234168      -278.4859
  55   2.0000     -10.234167      -278.4858
  56   2.0000      -1.065879       -29.0040
  57   2.0000      -1.025185       -27.8967
  58   2.0000      -1.025184       -27.8967
  59   2.0000      -0.925382       -25.1809
  60   2.0000      -0.903789       -24.5933
  61   2.0000      -0.903458       -24.5843
  62   2.0000      -0.890201       -24.2236
  63   2.0000      -0.873800       -23.7773
  64   2.0000      -0.872128       -23.7318
  65   2.0000      -0.870817       -23.6961
  66   2.0000      -0.870815       -23.6961
  67   2.0000      -0.855230       -23.2720
  68   2.0000      -0.831024       -22.6133
  69   2.0000      -0.823068       -22.3968
  70   2.0000      -0.806802       -21.9542
  71   2.0000      -0.806239       -21.9389
  72   2.0000      -0.792474       -21.5643
  73   2.0000      -0.784543       -21.3485
  74   2.0000      -0.784216       -21.3396
  75   2.0000      -0.784149       -21.3378
  76   2.0000      -0.779682       -21.2162
  77   2.0000      -0.770491       -20.9661
  78   2.0000      -0.770384       -20.9632
  79   2.0000      -0.764800       -20.8113
  80   2.0000      -0.750805       -20.4305
  81   2.0000      -0.737213       -20.0606
  82   2.0000      -0.737182       -20.0597
  83   2.0000      -0.736253       -20.0345
  84   2.0000      -0.716125       -19.4868
  85   2.0000      -0.700241       -19.0545
  86   2.0000      -0.691101       -18.8058
  87   2.0000      -0.673396       -18.3240
  88   2.0000      -0.661466       -17.9994
  89   2.0000      -0.652128       -17.7453
  90   2.0000      -0.650537       -17.7020
  91   2.0000      -0.643152       -17.5011
  92   2.0000      -0.637272       -17.3410
  93   2.0000      -0.626324       -17.0432
  94   2.0000      -0.623441       -16.9647
  95   2.0000      -0.620895       -16.8954
  96   2.0000      -0.620313       -16.8796
  97   2.0000      -0.605731       -16.4828
  98   2.0000      -0.601244       -16.3607
  99   2.0000      -0.593419       -16.1478
 100   2.0000      -0.593266       -16.1436
 101   2.0000      -0.591866       -16.1055
 102   2.0000      -0.584320       -15.9001
 103   2.0000      -0.571738       -15.5578
 104   2.0000      -0.561071       -15.2675
 105   2.0000      -0.560619       -15.2552
 106   2.0000      -0.542752       -14.7690
 107   2.0000      -0.539173       -14.6716
 108   2.0000      -0.537058       -14.6141
 109   2.0000      -0.533054       -14.5051
 110   2.0000      -0.528497       -14.3811
 111   2.0000      -0.526211       -14.3189
 112   2.0000      -0.519527       -14.1371
 113   2.0000      -0.509695       -13.8695
 114   2.0000      -0.508811       -13.8455
 115   2.0000      -0.492313       -13.3965
 116   2.0000      -0.492000       -13.3880
 117   2.0000      -0.483265       -13.1503
 118   2.0000      -0.482793       -13.1375
 119   2.0000      -0.476199       -12.9580
 120   2.0000      -0.473045       -12.8722
 121   2.0000      -0.472339       -12.8530
 122   2.0000      -0.470758       -12.8100
 123   2.0000      -0.470406       -12.8004
 124   2.0000      -0.468042       -12.7361
 125   2.0000      -0.463609       -12.6154
 126   2.0000      -0.462607       -12.5882
 127   2.0000      -0.457604       -12.4520
 128   2.0000      -0.456997       -12.4355
 129   2.0000      -0.455163       -12.3856
 130   2.0000      -0.454485       -12.3672
 131   2.0000      -0.453097       -12.3294
 132   2.0000      -0.452648       -12.3172
 133   2.0000      -0.450891       -12.2694
 134   2.0000      -0.446265       -12.1435
 135   2.0000      -0.444745       -12.1021
 136   2.0000      -0.443928       -12.0799
 137   2.0000      -0.443700       -12.0737
 138   2.0000      -0.440994       -12.0001
 139   2.0000      -0.437092       -11.8939
 140   2.0000      -0.432858       -11.7787
 141   2.0000      -0.432685       -11.7740
 142   2.0000      -0.420125       -11.4322
 143   2.0000      -0.412739       -11.2312
 144   2.0000      -0.411691       -11.2027
 145   2.0000      -0.410005       -11.1568
 146   2.0000      -0.406031       -11.0487
 147   2.0000      -0.400353       -10.8942
 148   2.0000      -0.398938       -10.8557
 149   2.0000      -0.397757       -10.8235
 150   2.0000      -0.389149       -10.5893
 151   2.0000      -0.388130       -10.5615
 152   2.0000      -0.381792       -10.3891
 153   2.0000      -0.381638       -10.3849
 154   2.0000      -0.379991       -10.3401
 155   2.0000      -0.379886       -10.3372
 156   2.0000      -0.376463       -10.2441
 157   2.0000      -0.375391       -10.2149
 158   2.0000      -0.374915       -10.2020
 159   2.0000      -0.372468       -10.1354
 160   2.0000      -0.364248        -9.9117
 161   2.0000      -0.363535        -9.8923
 162   2.0000      -0.360274        -9.8036
 163   2.0000      -0.357841        -9.7373
 164   2.0000      -0.355218        -9.6660
 165   2.0000      -0.352902        -9.6030
 166   2.0000      -0.352894        -9.6027
 167   2.0000      -0.350577        -9.5397
 168   2.0000      -0.345641        -9.4054
 169   2.0000      -0.328788        -8.9468
 170   2.0000      -0.308920        -8.4061
 171   2.0000      -0.300325        -8.1722
 172   2.0000      -0.299036        -8.1372
 173   2.0000      -0.293468        -7.9857
 174   2.0000      -0.289547        -7.8790
 175   2.0000      -0.286115        -7.7856
 176   2.0000      -0.286064        -7.7842
 177   2.0000      -0.278993        -7.5918
 178   2.0000      -0.275626        -7.5002
 179   2.0000      -0.271843        -7.3972
 180   2.0000      -0.271843        -7.3972
 181   2.0000      -0.245898        -6.6912
 182   2.0000      -0.232288        -6.3209
 183   2.0000      -0.232287        -6.3209
 184   2.0000      -0.225316        -6.1312
 185   2.0000      -0.214482        -5.8363
 186   2.0000      -0.201890        -5.4937
 187   0.0000      -0.106251        -2.8912
 188   0.0000      -0.078955        -2.1485
 189   0.0000      -0.063652        -1.7321
 190   0.0000      -0.034422        -0.9367
 191   0.0000      -0.034421        -0.9366

Total SCF time: 0 days 0 hours 46 min 0 sec

-----------------------------------------------------------------------------
         ABSORPTION SPECTRUM VIA TRANSITION ELECTRIC DIPOLE MOMENTS
-----------------------------------------------------------------------------
State   Energy    Wavelength  fosc         T2        TX        TY        TZ
        (cm-1)      (nm)                 (au**2)    (au)      (au)      (au)
-----------------------------------------------------------------------------
   1   17406.0    574.5   1.071405341  20.26420   4.50156   0.00018   0.01410
   2   21082.2    474.3   0.027666947   0.43204   0.00007  -0.65729   0.00078
   3   22052.5    453.5   1.150868597  17.18082   4.14495   0.00018   0.01396
   4   23867.0    419.0   1.081422573  14.91670   3.86219   0.00019   0.01459
   5   25100.2    398.4   0.000021654   0.00028  -0.00032   0.01680   0.00129
   6   11690.5    855.4   spin forbidden (mult=3)
   7   16932.9    590.6   spin forbidden (mult=3)
   8   18323.2    545.8   spin forbidden (mult=3)
   9   21406.5    467.1   spin forbidden (mult=3)
  10   21514.6    464.8   spin forbidden (mult=3)

Dispersion correction           -0.121873170
FINAL SINGLE POINT ENERGY     -2220.819142951716
Dispersion correction                    ... done

DIPOLE MOMENT
-------------
                                X             Y             Z
Electronic contribution:      0.00003      -0.04371      -0.00118
Nuclear contribution   :      0.00007      -1.14499       0.00291
                        -----------------------------------------
Total Dipole Moment    :      0.00011      -1.18870       0.00173
                        -----------------------------------------
Magnitude (a.u.)       :      1.18870
Magnitude (Debye)      :      3.02143

Rotational constants in cm-1:     0.005087     0.000249     0.000244
Rotational constants in MHz :   152.512333     7.455856     7.308449

                             ****ORCA TERMINATED NORMALLY****
TOTAL RUN TIME: 0 days 2 hours 0 minutes 2 seconds 123 msec
