                         Program Version 5.0.3 -  RELEASE  -
|  1> ! PBE0 def2-SVP D3BJ def2/J RIJCOSX tightSCF noautostart miniprint nopop defgrid3
|  2> ! EnGrad
|  3> %maxcore    4000
|  4> %pal    nprocs  20  end
|  5> %tddft  PrintLevel  3
|  6> 	TDA	False
|  7> 	DoSOC	True
|  8> 	NRoots	5
|  9> 	IRoot	1
| 10>         MaxDim  10
| 11> end
| 12> * xyzfile 0 1 /gpfs/fs0/scratch/a/aspuru/malcolms/aiida/d9/46/e501-2dba-42de-8e45-93d2695210eb/orca_freq.xyz
| 13>
| 14>
| 15>                          ****END OF INPUT****

CARTESIAN COORDINATES (ANGSTROEM)
---------------------------------
  C      0.000158    0.110982   -1.453601
  C      0.000008   -0.092670    0.065836
  C      0.000082    1.257612    0.791913
  C     -1.176175   -0.951331    0.505164
  C     -2.526427   -0.689646    0.371948
  C     -3.476024   -1.617155    0.849057
  C     -4.915099   -1.407736    0.741859
  C     -5.540925   -0.356901    0.173069
  C     -6.981133   -0.148413    0.070832
  C     -7.934236   -1.030385    0.613118
  C     -9.293185   -0.783372    0.495010
  C     -9.751137    0.351708   -0.186804
  N    -11.131805    0.597653   -0.310672
  C    -11.784709    1.766046    0.066444
  C    -11.269270    2.916844    0.666632
  C    -12.158631    3.944804    0.962792
  C    -13.528622    3.834845    0.677019
  C    -14.038988    2.680803    0.094063
  C    -13.166989    1.632340   -0.213894
  C    -13.349003    0.318364   -0.788159
  C    -14.459830   -0.377754   -1.273921
  C    -14.282003   -1.653559   -1.796307
  C    -13.004538   -2.233451   -1.845665
  C    -11.882604   -1.562910   -1.369107
  C    -12.069265   -0.287992   -0.830553
  C     -8.820576    1.236572   -0.737877
  C     -7.460538    0.990058   -0.599238
  C     -3.010039   -2.799221    1.457605
  C     -1.653149   -3.069814    1.595166
  C     -0.729340   -2.141193    1.116064
  C      0.728758   -2.141403    1.116069
  C      1.652297   -3.070270    1.595219
  C      3.009269   -2.799999    1.457821
  C      3.475593   -1.617983    0.849444
  C      4.914728   -1.408868    0.742350
  C      5.540748   -0.359673    0.170748
  C      6.980992   -0.151191    0.068988
  C      7.460757    0.982797   -0.608394
  C      8.820873    1.228957   -0.746916
  C      9.751072    0.348372   -0.188450
  N     11.131809    0.594130   -0.312086
  C     11.783693    1.765183    0.058417
  C     11.267011    2.919328    0.651057
  C     12.155522    3.949566    0.941800
  C     13.525852    3.838628    0.658030
  C     14.037431    2.681359    0.082576
  C     13.166308    1.630550   -0.219824
  C     13.349572    0.313184   -0.785886
  C     14.461212   -0.385307   -1.266355
  C     14.284545   -1.664408   -1.781023
  C     13.007446   -2.245316   -1.827916
  C     11.884720   -1.572479   -1.356486
  C     12.070207   -0.294139   -0.825712
  C      9.292751   -0.782067    0.500772
  C      7.933748   -1.028789    0.618932
  C      2.526269   -0.690120    0.372477
  C      1.175939   -0.951601    0.505308
  H      0.890132    0.676410   -1.770610
  H     -0.889661    0.676558   -1.770781
  H      0.000126   -0.854425   -1.980110
  H     -0.889720    1.846224    0.519777
  H      0.890074    1.846033    0.519983
  H     -0.000059    1.117905    1.882653
  H     -2.858307    0.237726   -0.101034
  H     -5.523378   -2.208033    1.176027
  H     -4.935142    0.439532   -0.271126
  H     -7.608137   -1.919845    1.155655
  H    -10.018642   -1.464093    0.944725
  H    -10.207711    3.005749    0.902447
  H    -11.779516    4.855901    1.431771
  H    -14.197933    4.662383    0.921586
  H    -15.106940    2.590018   -0.117883
  H    -15.452047    0.078775   -1.246097
  H    -15.140901   -2.209521   -2.178150
  H    -12.884685   -3.232715   -2.270951
  H    -10.891478   -2.016041   -1.422192
  H     -9.172132    2.113260   -1.285152
  H     -6.743270    1.690114   -1.035722
  H     -3.742746   -3.520165    1.829777
  H     -1.322788   -3.995702    2.071757
  H      1.321657   -3.996093    2.071746
  H      3.741761   -3.521168    1.829977
  H      5.522874   -2.208004    1.178843
  H      4.935106    0.435015   -0.276754
  H      6.743756    1.679434   -1.050743
  H      9.172806    2.102006   -1.299746
  H     10.205159    3.009068    0.885252
  H     11.775460    4.863296    1.404852
  H     14.194461    4.668015    0.898217
  H     15.105632    2.589894   -0.127813
  H     15.453158    0.071924   -1.240435
  H     15.144086   -2.222237   -2.158672
  H     12.888530   -3.247262   -2.247110
  H     10.893888   -2.026490   -1.407578
  H     10.017943   -1.459173    0.956341
  H      7.607246   -1.914193    1.167829
  H      2.858438    0.237494   -0.099827

ORBITAL ENERGIES
----------------

  NO   OCC          E(Eh)            E(eV)
   0   2.0000     -14.448269      -393.1574
   1   2.0000     -14.448248      -393.1568
   2   2.0000     -10.291503      -280.0460
   3   2.0000     -10.291494      -280.0458
   4   2.0000     -10.276058      -279.6257
   5   2.0000     -10.276046      -279.6254
   6   2.0000     -10.275997      -279.6241
   7   2.0000     -10.275985      -279.6238
   8   2.0000     -10.264196      -279.3030
   9   2.0000     -10.259543      -279.1764
  10   2.0000     -10.259536      -279.1762
  11   2.0000     -10.256066      -279.0818
  12   2.0000     -10.256060      -279.0816
  13   2.0000     -10.253512      -279.0122
  14   2.0000     -10.253507      -279.0121
  15   2.0000     -10.253059      -278.9999
  16   2.0000     -10.253056      -278.9998
  17   2.0000     -10.252885      -278.9952
  18   2.0000     -10.252882      -278.9951
  19   2.0000     -10.252603      -278.9875
  20   2.0000     -10.252599      -278.9874
  21   2.0000     -10.250697      -278.9356
  22   2.0000     -10.250691      -278.9355
  23   2.0000     -10.249786      -278.9108
  24   2.0000     -10.249783      -278.9108
  25   2.0000     -10.249426      -278.9011
  26   2.0000     -10.249291      -278.8974
  27   2.0000     -10.247987      -278.8619
  28   2.0000     -10.247914      -278.8599
  29   2.0000     -10.247836      -278.8578
  30   2.0000     -10.247813      -278.8572
  31   2.0000     -10.246948      -278.8336
  32   2.0000     -10.246942      -278.8335
  33   2.0000     -10.246905      -278.8325
  34   2.0000     -10.246885      -278.8319
  35   2.0000     -10.240040      -278.6457
  36   2.0000     -10.240032      -278.6454
  37   2.0000     -10.239908      -278.6421
  38   2.0000     -10.239900      -278.6418
  39   2.0000     -10.239639      -278.6347
  40   2.0000     -10.239628      -278.6345
  41   2.0000     -10.239603      -278.6338
  42   2.0000     -10.239594      -278.6335
  43   2.0000     -10.238781      -278.6114
  44   2.0000     -10.238772      -278.6111
  45   2.0000     -10.238569      -278.6056
  46   2.0000     -10.238559      -278.6054
  47   2.0000     -10.238494      -278.6036
  48   2.0000     -10.238491      -278.6035
  49   2.0000     -10.238487      -278.6034
  50   2.0000     -10.238481      -278.6032
  51   2.0000     -10.237962      -278.5891
  52   2.0000     -10.237934      -278.5883
  53   2.0000     -10.232384      -278.4373
  54   2.0000     -10.232375      -278.4371
  55   2.0000     -10.232374      -278.4370
  56   2.0000     -10.232366      -278.4368
  57   2.0000      -1.022989       -27.8369
  58   2.0000      -1.022981       -27.8367
  59   2.0000      -0.923895       -25.1405
  60   2.0000      -0.901774       -24.5385
  61   2.0000      -0.901591       -24.5335
  62   2.0000      -0.883310       -24.0361
  63   2.0000      -0.871254       -23.7080
  64   2.0000      -0.869609       -23.6633
  65   2.0000      -0.868840       -23.6423
  66   2.0000      -0.868830       -23.6421
  67   2.0000      -0.854436       -23.2504
  68   2.0000      -0.828632       -22.5482
  69   2.0000      -0.827576       -22.5195
  70   2.0000      -0.812817       -22.1179
  71   2.0000      -0.803302       -21.8589
  72   2.0000      -0.791199       -21.5296
  73   2.0000      -0.781487       -21.2654
  74   2.0000      -0.781351       -21.2616
  75   2.0000      -0.777261       -21.1503
  76   2.0000      -0.769039       -20.9266
  77   2.0000      -0.768727       -20.9181
  78   2.0000      -0.768487       -20.9116
  79   2.0000      -0.763837       -20.7851
  80   2.0000      -0.755828       -20.5671
  81   2.0000      -0.747195       -20.3322
  82   2.0000      -0.735261       -20.0075
  83   2.0000      -0.735250       -20.0072
  84   2.0000      -0.731456       -19.9039
  85   2.0000      -0.715491       -19.4695
  86   2.0000      -0.709180       -19.2978
  87   2.0000      -0.686887       -18.6911
  88   2.0000      -0.670681       -18.2502
  89   2.0000      -0.669593       -18.2206
  90   2.0000      -0.651802       -17.7364
  91   2.0000      -0.649544       -17.6750
  92   2.0000      -0.647751       -17.6262
  93   2.0000      -0.639688       -17.4068
  94   2.0000      -0.631468       -17.1831
  95   2.0000      -0.622954       -16.9514
  96   2.0000      -0.622110       -16.9285
  97   2.0000      -0.616265       -16.7694
  98   2.0000      -0.610039       -16.6000
  99   2.0000      -0.600826       -16.3493
 100   2.0000      -0.597130       -16.2487
 101   2.0000      -0.591452       -16.0942
 102   2.0000      -0.591369       -16.0920
 103   2.0000      -0.586903       -15.9704
 104   2.0000      -0.578710       -15.7475
 105   2.0000      -0.567029       -15.4296
 106   2.0000      -0.558935       -15.2094
 107   2.0000      -0.558416       -15.1953
 108   2.0000      -0.536254       -14.5922
 109   2.0000      -0.535179       -14.5630
 110   2.0000      -0.534304       -14.5391
 111   2.0000      -0.529438       -14.4068
 112   2.0000      -0.525633       -14.3032
 113   2.0000      -0.521287       -14.1849
 114   2.0000      -0.516040       -14.0422
 115   2.0000      -0.506765       -13.7898
 116   2.0000      -0.505546       -13.7566
 117   2.0000      -0.489550       -13.3213
 118   2.0000      -0.486896       -13.2491
 119   2.0000      -0.480800       -13.0832
 120   2.0000      -0.480253       -13.0683
 121   2.0000      -0.470591       -12.8054
 122   2.0000      -0.470320       -12.7981
 123   2.0000      -0.469149       -12.7662
 124   2.0000      -0.468280       -12.7426
 125   2.0000      -0.467639       -12.7251
 126   2.0000      -0.465743       -12.6735
 127   2.0000      -0.458792       -12.4844
 128   2.0000      -0.457986       -12.4624
 129   2.0000      -0.455305       -12.3895
 130   2.0000      -0.454108       -12.3569
 131   2.0000      -0.451355       -12.2820
 132   2.0000      -0.451050       -12.2737
 133   2.0000      -0.450596       -12.2614
 134   2.0000      -0.449781       -12.2392
 135   2.0000      -0.449266       -12.2252
 136   2.0000      -0.445783       -12.1304
 137   2.0000      -0.442266       -12.0347
 138   2.0000      -0.441794       -12.0218
 139   2.0000      -0.441786       -12.0216
 140   2.0000      -0.438116       -11.9217
 141   2.0000      -0.435250       -11.8438
 142   2.0000      -0.431313       -11.7366
 143   2.0000      -0.430765       -11.7217
 144   2.0000      -0.415410       -11.3039
 145   2.0000      -0.413432       -11.2501
 146   2.0000      -0.411315       -11.1924
 147   2.0000      -0.408828       -11.1248
 148   2.0000      -0.406983       -11.0746
 149   2.0000      -0.403456       -10.9786
 150   2.0000      -0.400728       -10.9044
 151   2.0000      -0.397010       -10.8032
 152   2.0000      -0.388971       -10.5844
 153   2.0000      -0.387724       -10.5505
 154   2.0000      -0.386973       -10.5301
 155   2.0000      -0.379703       -10.3322
 156   2.0000      -0.379516       -10.3271
 157   2.0000      -0.378285       -10.2937
 158   2.0000      -0.378231       -10.2922
 159   2.0000      -0.373897       -10.1743
 160   2.0000      -0.373841       -10.1727
 161   2.0000      -0.368716       -10.0333
 162   2.0000      -0.368312       -10.0223
 163   2.0000      -0.367851       -10.0097
 164   2.0000      -0.367690       -10.0053
 165   2.0000      -0.366584        -9.9752
 166   2.0000      -0.356137        -9.6910
 167   2.0000      -0.355277        -9.6676
 168   2.0000      -0.351318        -9.5599
 169   2.0000      -0.350908        -9.5487
 170   2.0000      -0.350898        -9.5484
 171   2.0000      -0.348200        -9.4750
 172   2.0000      -0.340946        -9.2776
 173   2.0000      -0.338665        -9.2156
 174   2.0000      -0.337471        -9.1831
 175   2.0000      -0.325936        -8.8692
 176   2.0000      -0.304780        -8.2935
 177   2.0000      -0.298375        -8.1192
 178   2.0000      -0.297050        -8.0832
 179   2.0000      -0.283555        -7.7159
 180   2.0000      -0.283512        -7.7148
 181   2.0000      -0.277494        -7.5510
 182   2.0000      -0.272081        -7.4037
 183   2.0000      -0.269929        -7.3451
 184   2.0000      -0.269918        -7.3448
 185   2.0000      -0.269696        -7.3388
 186   2.0000      -0.243554        -6.6274
 187   2.0000      -0.230295        -6.2666
 188   2.0000      -0.230286        -6.2664
 189   2.0000      -0.223161        -6.0725
 190   2.0000      -0.213180        -5.8009
 191   2.0000      -0.204029        -5.5519
 192   0.0000      -0.080582        -2.1927
 193   0.0000      -0.055726        -1.5164
 194   0.0000      -0.032607        -0.8873
 195   0.0000      -0.032598        -0.8870
 196   0.0000      -0.021902        -0.5960

Total SCF time: 0 days 0 hours 7 min 29 sec

---------------------------------------------------------------------------------------------------------------------
                    SOC CORRECTED ABSORPTION SPECTRUM VIA TRANSITION ELECTRIC DIPOLE MOMENTS*
---------------------------------------------------------------------------------------------------------------------
   State    Energy  Wavelength   fosc         T2              TX                    TY                    TZ
            (cm-1)    (nm)                  (au**2)          (au)                  (au)                  (au)
---------------------------------------------------------------------------------------------------------------------
   0   1   14294.3    699.6   0.000000001   0.00000 ( -0.00000, -0.00017) ( -0.00000, -0.00000) (  0.00000,  0.00000)
   0   2   14294.3    699.6   0.000000000   0.00000 ( -0.00000, -0.00000) (  0.00000,  0.00000) ( -0.00000, -0.00000)
   0   3   14294.3    699.6   0.000000000   0.00000 ( -0.00000, -0.00000) (  0.00000,  0.00000) ( -0.00000, -0.00000)
   0   4   17260.7    579.4   0.000000000   0.00000 (  0.00000,  0.00001) (  0.00000,  0.00000) (  0.00000,  0.00000)
   0   5   17260.7    579.4   0.000000000   0.00000 (  0.00000,  0.00002) ( -0.00000, -0.00000) ( -0.00000, -0.00000)
   0   6   17260.7    579.4   0.000000000   0.00000 ( -0.00000,  0.00000) ( -0.00000,  0.00000) (  0.00000, -0.00000)
   0   7   23081.8    433.2   2.636131134  37.59869 ( -0.01946,  6.13175) (  0.00000, -0.00136) (  0.00000, -0.00029)
   0   8   23687.9    422.2   0.000000001   0.00000 ( -0.00000,  0.00009) (  0.00000, -0.00000) (  0.00000, -0.00000)
   0   9   23687.9    422.2   0.000000000   0.00000 (  0.00000,  0.00000) (  0.00001,  0.00000) ( -0.00000, -0.00000)
   0  10   23687.9    422.2   0.000000000   0.00000 (  0.00001,  0.00000) ( -0.00000, -0.00000) (  0.00000,  0.00000)
   0  11   24666.9    405.4   0.000000000   0.00000 ( -0.00002,  0.00005) (  0.00000, -0.00000) ( -0.00000,  0.00000)
   0  12   24666.9    405.4   0.000000002   0.00000 (  0.00017,  0.00002) ( -0.00006, -0.00001) (  0.00003,  0.00000)
   0  13   24666.9    405.4   0.000000001   0.00000 ( -0.00009, -0.00001) (  0.00004,  0.00001) ( -0.00002, -0.00000)
   0  14   25635.3    390.1   0.000000000   0.00000 (  0.00000, -0.00002) ( -0.00000,  0.00001) (  0.00000, -0.00000)
   0  15   25635.3    390.1   0.000000000   0.00000 (  0.00000, -0.00001) ( -0.00000,  0.00000) (  0.00000, -0.00000)
   0  16   25635.3    390.1   0.000000005   0.00000 (  0.00000,  0.00000) (  0.00023,  0.00001) ( -0.00012, -0.00000)
   0  17   25851.8    386.8   0.036602400   0.46612 (  0.00058, -0.00000) (  0.60472, -0.00344) ( -0.31689,  0.00180)
   0  18   27985.7    357.3   0.251226875   2.95533 ( -0.00704, -1.71909) ( -0.00000, -0.00097) (  0.00000,  0.00028)
   0  19   29076.2    343.9   0.044863891   0.50797 (  0.00089,  0.00000) ( -0.63205, -0.00306) (  0.32934,  0.00160)
   0  20   29787.9    335.7   0.000053492   0.00059 ( -0.00006,  0.00104) (  0.00130, -0.02142) (  0.00069, -0.01137)

Dispersion correction           -0.130553473
FINAL SINGLE POINT ENERGY     -2225.417749203100
Dispersion correction                    ... done

DIPOLE MOMENT
-------------
                                X             Y             Z
Electronic contribution:     -0.00972      -2.85861       1.39243
Nuclear contribution   :      0.00044       3.26081      -1.59993
                        -----------------------------------------
Total Dipole Moment    :     -0.00927       0.40220      -0.20750
                        -----------------------------------------
Magnitude (a.u.)       :      0.45267
Magnitude (Debye)      :      1.15059

Rotational constants in cm-1:     0.005237     0.000246     0.000240
Rotational constants in MHz :   157.013450     7.381441     7.180247

                             ****ORCA TERMINATED NORMALLY****
TOTAL RUN TIME: 0 days 1 hours 0 minutes 38 seconds 212 msec
