                         Program Version 5.0.3 -  RELEASE  -
|  1> ! PBE0 def2-SVP D3BJ def2/J RIJCOSX tightSCF noautostart miniprint nopop defgrid3
|  2> ! EnGrad
|  3> %maxcore    4000
|  4> %pal    nprocs  8  end
|  5> %tddft  PrintLevel  3
|  6> 	IRootMult	Triplet
|  7> 	TDA	True
|  8> 	NRoots	5
|  9>         MaxDim  10
| 10> end
| 11> * xyzfile 0 1 orcaopt.xyz
| 12>
| 13>
| 14>                          ****END OF INPUT****

CARTESIAN COORDINATES (ANGSTROEM)
---------------------------------
  C     -3.792271    0.661515    0.674677
  C     -2.880946    0.034926   -0.110229
  C     -1.446365    0.098961   -0.046333
  C     -0.707107    0.874300    0.871426
  N      0.609717    0.937598    0.942369
  C      1.377027    0.223187    0.088989
  C      2.802015    0.356035    0.250795
  C      3.772173   -0.252814   -0.476819
  C      5.206497   -0.094614   -0.279990
  C      5.779022    0.709235    0.726111
  C      7.154897    0.815885    0.871521
  C      8.001858    0.126163    0.001155
  N      9.416342    0.236994    0.143339
  C     10.253874   -0.763177    0.586625
  C      9.924762   -2.057356    1.002911
  C     10.969094   -2.881454    1.408954
  C     12.297549   -2.431464    1.402313
  C     12.617677   -1.134742    0.988762
  C     11.593054   -0.288156    0.577085
  C     11.534818    1.080651    0.098768
  C     12.481900    2.071843   -0.138985
  C     12.055225    3.310840   -0.626654
  C     10.698247    3.560956   -0.878434
  C      9.729653    2.589229   -0.649898
  C     10.164177    1.354265   -0.157549
  C      7.466806   -0.672688   -1.008522
  C      6.088135   -0.781545   -1.136525
  C      0.766799   -0.608620   -0.903396
  N      1.372554   -1.375525   -1.812205
  S      0.176249   -2.101080   -2.697543
  N     -1.145069   -1.473461   -1.918771
  C     -0.676315   -0.669217   -0.969601
  C     -5.238021    0.537155    0.538621
  C     -6.081962    1.203146    1.447518
  C     -7.466537    1.109257    1.368682
  C     -8.043758    0.346921    0.355948
  N     -9.466811    0.245462    0.260462
  C    -10.306128    1.234176   -0.197886
  C     -9.974038    2.512471   -0.660491
  C    -11.020532    3.330330   -1.074726
  C    -12.349917    2.888172   -1.029314
  C    -12.673295    1.605084   -0.567708
  C    -11.648228    0.766789   -0.148613
  C    -11.585322   -0.589606    0.370215
  C    -12.526000   -1.572099    0.650981
  C    -12.086677   -2.800749    1.162457
  C    -10.726149   -3.047316    1.392986
  C     -9.762185   -2.081952    1.120504
  C    -10.209316   -0.858931    0.607540
  C     -7.237817   -0.320089   -0.568137
  C     -5.857391   -0.228169   -0.471317
  H     -3.456405    1.312488    1.486354
  H     -3.234632   -0.622356   -0.911016
  H     -1.251865    1.484302    1.600758
  H      3.056219    1.037315    1.068887
  H      3.465714   -0.922091   -1.282713
  H      5.132004    1.256334    1.413194
  H      7.581307    1.432404    1.665337
  H      8.888178   -2.397460    1.004783
  H     10.747776   -3.898091    1.740145
  H     13.093917   -3.104212    1.726503
  H     13.655774   -0.795618    0.990203
  H     13.541840    1.888206    0.049329
  H     12.790062    4.095543   -0.816748
  H     10.394026    4.536411   -1.263322
  H      8.671945    2.772863   -0.844137
  H      8.132601   -1.203667   -1.691672
  H      5.670217   -1.411645   -1.924633
  H     -5.633977    1.806092    2.240651
  H     -8.100169    1.624409    2.093237
  H     -8.934770    2.842823   -0.690641
  H    -10.800243    4.334200   -1.442880
  H    -13.148518    3.554681   -1.360804
  H    -13.714115    1.275870   -0.541225
  H    -13.589890   -1.396576    0.478588
  H    -12.818260   -3.579759    1.385660
  H    -10.415338   -4.013970    1.793949
  H     -8.699979   -2.260338    1.293779
  H     -7.696568   -0.909479   -1.364497
  H     -5.245472   -0.760011   -1.200798

ORBITAL ENERGIES
----------------

  NO   OCC          E(Eh)            E(eV)
   0   2.0000     -89.118382     -2425.0345
   1   2.0000     -14.453760      -393.3068
   2   2.0000     -14.449200      -393.1827
   3   2.0000     -14.446447      -393.1078
   4   2.0000     -14.444809      -393.0632
   5   2.0000     -14.409479      -392.1018
   6   2.0000     -10.310054      -280.5508
   7   2.0000     -10.309002      -280.5222
   8   2.0000     -10.306201      -280.4460
   9   2.0000     -10.297515      -280.2096
  10   2.0000     -10.295746      -280.1615
  11   2.0000     -10.290145      -280.0091
  12   2.0000     -10.275246      -279.6037
  13   2.0000     -10.275181      -279.6019
  14   2.0000     -10.275101      -279.5997
  15   2.0000     -10.274231      -279.5760
  16   2.0000     -10.274164      -279.5742
  17   2.0000     -10.268692      -279.4253
  18   2.0000     -10.267260      -279.3863
  19   2.0000     -10.263693      -279.2893
  20   2.0000     -10.260482      -279.2019
  21   2.0000     -10.260241      -279.1954
  22   2.0000     -10.259985      -279.1884
  23   2.0000     -10.259814      -279.1837
  24   2.0000     -10.259769      -279.1825
  25   2.0000     -10.259707      -279.1808
  26   2.0000     -10.259466      -279.1743
  27   2.0000     -10.259242      -279.1682
  28   2.0000     -10.259206      -279.1672
  29   2.0000     -10.258779      -279.1556
  30   2.0000     -10.254780      -279.0468
  31   2.0000     -10.239768      -278.6382
  32   2.0000     -10.239633      -278.6346
  33   2.0000     -10.239092      -278.6198
  34   2.0000     -10.238963      -278.6164
  35   2.0000     -10.238787      -278.6116
  36   2.0000     -10.238727      -278.6099
  37   2.0000     -10.238555      -278.6053
  38   2.0000     -10.238354      -278.5998
  39   2.0000     -10.237892      -278.5872
  40   2.0000     -10.237840      -278.5858
  41   2.0000     -10.237827      -278.5854
  42   2.0000     -10.237822      -278.5853
  43   2.0000     -10.237777      -278.5841
  44   2.0000     -10.237592      -278.5791
  45   2.0000     -10.237051      -278.5643
  46   2.0000     -10.237034      -278.5638
  47   2.0000     -10.231719      -278.4192
  48   2.0000     -10.231668      -278.4178
  49   2.0000     -10.230895      -278.3968
  50   2.0000     -10.230886      -278.3966
  51   2.0000      -8.115355      -220.8300
  52   2.0000      -6.058591      -164.8627
  53   2.0000      -6.051360      -164.6659
  54   2.0000      -6.049788      -164.6231
  55   2.0000      -1.065771       -29.0011
  56   2.0000      -1.025586       -27.9076
  57   2.0000      -1.024655       -27.8823
  58   2.0000      -0.984341       -26.7853
  59   2.0000      -0.935491       -25.4560
  60   2.0000      -0.906564       -24.6689
  61   2.0000      -0.906350       -24.6630
  62   2.0000      -0.871510       -23.7150
  63   2.0000      -0.870932       -23.6993
  64   2.0000      -0.867817       -23.6145
  65   2.0000      -0.866795       -23.5867
  66   2.0000      -0.855708       -23.2850
  67   2.0000      -0.841096       -22.8874
  68   2.0000      -0.827260       -22.5109
  69   2.0000      -0.815096       -22.1799
  70   2.0000      -0.801664       -21.8144
  71   2.0000      -0.790728       -21.5168
  72   2.0000      -0.786181       -21.3931
  73   2.0000      -0.785719       -21.3805
  74   2.0000      -0.774547       -21.0765
  75   2.0000      -0.769300       -20.9337
  76   2.0000      -0.768287       -20.9061
  77   2.0000      -0.756017       -20.5723
  78   2.0000      -0.739426       -20.1208
  79   2.0000      -0.735901       -20.0249
  80   2.0000      -0.735498       -20.0139
  81   2.0000      -0.724439       -19.7130
  82   2.0000      -0.707588       -19.2545
  83   2.0000      -0.682642       -18.5756
  84   2.0000      -0.674976       -18.3670
  85   2.0000      -0.666229       -18.1290
  86   2.0000      -0.652320       -17.7505
  87   2.0000      -0.650830       -17.7100
  88   2.0000      -0.649834       -17.6829
  89   2.0000      -0.639292       -17.3960
  90   2.0000      -0.626616       -17.0511
  91   2.0000      -0.626156       -17.0386
  92   2.0000      -0.625230       -17.0134
  93   2.0000      -0.610489       -16.6122
  94   2.0000      -0.598544       -16.2872
  95   2.0000      -0.596190       -16.2231
  96   2.0000      -0.590829       -16.0773
  97   2.0000      -0.589928       -16.0527
  98   2.0000      -0.578278       -15.7357
  99   2.0000      -0.569443       -15.4953
 100   2.0000      -0.559506       -15.2249
 101   2.0000      -0.556420       -15.1410
 102   2.0000      -0.543638       -14.7931
 103   2.0000      -0.535308       -14.5665
 104   2.0000      -0.534699       -14.5499
 105   2.0000      -0.525217       -14.2919
 106   2.0000      -0.523853       -14.2548
 107   2.0000      -0.519718       -14.1423
 108   2.0000      -0.517174       -14.0730
 109   2.0000      -0.507777       -13.8173
 110   2.0000      -0.496632       -13.5140
 111   2.0000      -0.496347       -13.5063
 112   2.0000      -0.484611       -13.1869
 113   2.0000      -0.480442       -13.0735
 114   2.0000      -0.479645       -13.0518
 115   2.0000      -0.475221       -12.9314
 116   2.0000      -0.469663       -12.7802
 117   2.0000      -0.468897       -12.7593
 118   2.0000      -0.467798       -12.7294
 119   2.0000      -0.464273       -12.6335
 120   2.0000      -0.455483       -12.3943
 121   2.0000      -0.455272       -12.3886
 122   2.0000      -0.451532       -12.2868
 123   2.0000      -0.450852       -12.2683
 124   2.0000      -0.449910       -12.2427
 125   2.0000      -0.448809       -12.2127
 126   2.0000      -0.444596       -12.0981
 127   2.0000      -0.440768       -11.9939
 128   2.0000      -0.439909       -11.9705
 129   2.0000      -0.439760       -11.9665
 130   2.0000      -0.438906       -11.9432
 131   2.0000      -0.432303       -11.7636
 132   2.0000      -0.431153       -11.7323
 133   2.0000      -0.427087       -11.6216
 134   2.0000      -0.424159       -11.5420
 135   2.0000      -0.413895       -11.2626
 136   2.0000      -0.412909       -11.2358
 137   2.0000      -0.410153       -11.1608
 138   2.0000      -0.407861       -11.0985
 139   2.0000      -0.402501       -10.9526
 140   2.0000      -0.394954       -10.7472
 141   2.0000      -0.388012       -10.5583
 142   2.0000      -0.378758       -10.3065
 143   2.0000      -0.378130       -10.2895
 144   2.0000      -0.377483       -10.2718
 145   2.0000      -0.377189       -10.2638
 146   2.0000      -0.376159       -10.2358
 147   2.0000      -0.373348       -10.1593
 148   2.0000      -0.373241       -10.1564
 149   2.0000      -0.372413       -10.1339
 150   2.0000      -0.354780        -9.6541
 151   2.0000      -0.354297        -9.6409
 152   2.0000      -0.351306        -9.5595
 153   2.0000      -0.349457        -9.5092
 154   2.0000      -0.348204        -9.4751
 155   2.0000      -0.346021        -9.4157
 156   2.0000      -0.345534        -9.4024
 157   2.0000      -0.338499        -9.2110
 158   2.0000      -0.333431        -9.0731
 159   2.0000      -0.332840        -9.0570
 160   2.0000      -0.315459        -8.5841
 161   2.0000      -0.298840        -8.1319
 162   2.0000      -0.297682        -8.1003
 163   2.0000      -0.296122        -8.0579
 164   2.0000      -0.290027        -7.8920
 165   2.0000      -0.289756        -7.8847
 166   2.0000      -0.289594        -7.8803
 167   2.0000      -0.268413        -7.3039
 168   2.0000      -0.267190        -7.2706
 169   2.0000      -0.265276        -7.2185
 170   2.0000      -0.230671        -6.2769
 171   2.0000      -0.230265        -6.2658
 172   2.0000      -0.224818        -6.1176
 173   2.0000      -0.215443        -5.8625
 174   2.0000      -0.212705        -5.7880
 175   0.0000      -0.126389        -3.4392
 176   0.0000      -0.071345        -1.9414
 177   0.0000      -0.054057        -1.4710
 178   0.0000      -0.031459        -0.8561
 179   0.0000      -0.030476        -0.8293

Total SCF time: 0 days 0 hours 43 min 25 sec

-----------------------------------------------------------------------------
         ABSORPTION SPECTRUM VIA TRANSITION ELECTRIC DIPOLE MOMENTS
-----------------------------------------------------------------------------
State   Energy    Wavelength  fosc         T2        TX        TY        TZ
        (cm-1)      (nm)                 (au**2)    (au)      (au)      (au)
-----------------------------------------------------------------------------
   1   16143.6    619.4   0.400820340   8.17382   2.85896   0.00552  -0.01222
   2   16618.7    601.7   0.013645667   0.27032   0.50591   0.07208   0.09582
   3   19345.3    516.9   0.790187122  13.44717  -3.66570   0.05207   0.08425
   4   20034.8    499.1   0.000063930   0.00105  -0.03181   0.00461   0.00416
   5   20127.5    496.8   0.000029072   0.00048   0.02140  -0.00208  -0.00362
   6    9894.6   1010.6   spin forbidden (mult=3)
   7   16238.5    615.8   spin forbidden (mult=3)
   8   16619.9    601.7   spin forbidden (mult=3)
   9   20010.9    499.7   spin forbidden (mult=3)
  10   20113.1    497.2   spin forbidden (mult=3)

Dispersion correction           -0.109517279
FINAL SINGLE POINT ENERGY     -2400.285825326652
Dispersion correction                    ... done

DIPOLE MOMENT
-------------
                                X             Y             Z
Electronic contribution:      1.03219      -5.98908      -7.48422
Nuclear contribution   :     -1.63827       6.24373       7.78456
                        -----------------------------------------
Total Dipole Moment    :     -0.60608       0.25465       0.30034
                        -----------------------------------------
Magnitude (a.u.)       :      0.72276
Magnitude (Debye)      :      1.83710

Rotational constants in cm-1:     0.006513     0.000340     0.000333
Rotational constants in MHz :   195.249553    10.204334     9.976654

                             ****ORCA TERMINATED NORMALLY****
TOTAL RUN TIME: 0 days 1 hours 40 minutes 26 seconds 169 msec
