                         Program Version 5.0.3 -  RELEASE  -
|  1> ! PBE0 def2-SVP D3BJ def2/J RIJCOSX tightSCF noautostart miniprint nopop defgrid3
|  2> ! EnGrad
|  3> %maxcore    4000
|  4> %pal    nprocs  8  end
|  5> %tddft  PrintLevel  3
|  6> 	IRootMult	Singlet
|  7> 	TDA	True
|  8> 	NRoots	5
|  9>         MaxDim  10
| 10> end
| 11> * xyzfile 0 1 orcaopt.xyz
| 12>
| 13>
| 14>                          ****END OF INPUT****

CARTESIAN COORDINATES (ANGSTROEM)
---------------------------------
  C     -0.000082    0.095356   -1.554021
  C     -0.000153   -0.071069   -0.029897
  C     -0.000150    1.296301    0.663678
  C     -1.177672   -0.919112    0.429546
  C     -2.514758   -0.666602    0.296875
  C     -3.479416   -1.599222    0.804936
  C     -4.880151   -1.402282    0.708573
  C     -5.526706   -0.321814    0.131540
  C     -6.945480   -0.127201    0.044396
  C     -7.896600   -1.039962    0.564037
  C     -9.255300   -0.802258    0.462312
  C     -9.733453    0.352810   -0.176587
  N    -11.114167    0.588181   -0.282478
  C    -11.770190    1.757407    0.092549
  C    -11.257197    2.915357    0.681557
  C    -12.150738    3.938624    0.983261
  C    -13.523453    3.816662    0.715819
  C    -14.032393    2.654008    0.147834
  C    -13.155295    1.611588   -0.165282
  C    -13.337834    0.289726   -0.722363
  C    -14.453088   -0.414468   -1.185309
  C    -14.277202   -1.693715   -1.701073
  C    -12.997248   -2.266382   -1.768265
  C    -11.871305   -1.586016   -1.314516
  C    -12.055583   -0.309364   -0.778627
  C     -8.810698    1.268290   -0.705114
  C     -7.452051    1.033586   -0.588471
  C     -2.988344   -2.783978    1.441848
  C     -1.647299   -3.044069    1.578023
  C     -0.709007   -2.108604    1.071198
  C      0.708501   -2.108648    1.071248
  C      1.646697   -3.044096    1.578317
  C      2.987756   -2.784068    1.442307
  C      3.478969   -1.599420    0.805244
  C      4.879679   -1.402743    0.708670
  C      5.526396   -0.323289    0.129777
  C      6.945160   -0.128696    0.043048
  C      7.452075    1.029098   -0.595037
  C      8.810775    1.263347   -0.711905
  C      9.733273    0.350526   -0.178337
  N     11.114020    0.585446   -0.284553
  C     11.769817    1.756451    0.085338
  C     11.256402    2.917444    0.667944
  C     12.149792    3.942075    0.965446
  C     13.522773    3.818554    0.700102
  C     14.032119    2.652963    0.138540
  C     13.155178    1.609125   -0.170242
  C     13.338135    0.284437   -0.720435
  C     14.453793   -0.422218   -1.178624
  C     14.278289   -1.704020   -1.688143
  C     12.998324   -2.276839   -1.753842
  C     11.871988   -1.594040   -1.304752
  C     12.055863   -0.314743   -0.775067
  C      9.254774   -0.801366    0.466046
  C      7.896037   -1.038662    0.568071
  C      2.514392   -0.666694    0.297160
  C      1.177289   -0.919180    0.429631
  H      0.891334    0.651666   -1.883104
  H     -0.891291    0.651956   -1.883174
  H     -0.000218   -0.883539   -2.055183
  H     -0.891375    1.876101    0.377416
  H      0.891196    1.876016    0.377621
  H     -0.000278    1.180925    1.757341
  H     -2.854593    0.247220   -0.195410
  H     -5.494334   -2.197656    1.142020
  H     -4.919540    0.475291   -0.307152
  H     -7.559249   -1.944035    1.073985
  H     -9.969335   -1.505000    0.896373
  H    -10.194416    3.014083    0.907704
  H    -11.773059    4.854942    1.443201
  H    -14.195743    4.640767    0.964215
  H    -15.102559    2.551371   -0.047105
  H    -15.446509    0.038699   -1.146044
  H    -15.139056   -2.257392   -2.064810
  H    -12.878687   -3.267208   -2.190302
  H    -10.879009   -2.034052   -1.385450
  H     -9.175376    2.157273   -1.223305
  H     -6.745411    1.753587   -1.009780
  H     -3.720713   -3.497381    1.829513
  H     -1.306139   -3.957640    2.070172
  H      1.305435   -3.957605    2.070511
  H      3.720054   -3.497460    1.830129
  H      5.493793   -2.197652    1.143066
  H      4.919351    0.472501   -0.311459
  H      6.745667    1.746934   -1.020412
  H      9.175697    2.149787   -1.234266
  H     10.193403    3.017523    0.892465
  H     11.771760    4.860757    1.420351
  H     14.194930    4.643798    0.945054
  H     15.102474    2.549152   -0.054732
  H     15.447226    0.031028   -1.140579
  H     15.140456   -2.269639   -2.048102
  H     12.880070   -3.279755   -2.170976
  H     10.879710   -2.042305   -1.374533
  H      9.968552   -1.501794    0.904249
  H      7.558424   -1.939945    1.082762
  H      2.854334    0.247304   -0.194722

ORBITAL ENERGIES
----------------

  NO   OCC          E(Eh)            E(eV)
   0   2.0000     -14.449487      -393.1905
   1   2.0000     -14.449481      -393.1904
   2   2.0000     -10.291842      -280.0553
   3   2.0000     -10.291840      -280.0552
   4   2.0000     -10.276702      -279.6433
   5   2.0000     -10.276698      -279.6432
   6   2.0000     -10.276648      -279.6418
   7   2.0000     -10.276645      -279.6417
   8   2.0000     -10.264413      -279.3089
   9   2.0000     -10.258765      -279.1552
  10   2.0000     -10.258762      -279.1551
  11   2.0000     -10.257246      -279.1139
  12   2.0000     -10.257240      -279.1137
  13   2.0000     -10.252922      -278.9962
  14   2.0000     -10.252919      -278.9961
  15   2.0000     -10.252665      -278.9892
  16   2.0000     -10.252664      -278.9892
  17   2.0000     -10.252430      -278.9828
  18   2.0000     -10.252427      -278.9827
  19   2.0000     -10.252027      -278.9718
  20   2.0000     -10.252025      -278.9718
  21   2.0000     -10.251586      -278.9598
  22   2.0000     -10.251583      -278.9598
  23   2.0000     -10.250944      -278.9424
  24   2.0000     -10.250943      -278.9423
  25   2.0000     -10.250756      -278.9372
  26   2.0000     -10.250485      -278.9299
  27   2.0000     -10.248737      -278.8823
  28   2.0000     -10.248671      -278.8805
  29   2.0000     -10.248619      -278.8791
  30   2.0000     -10.248610      -278.8788
  31   2.0000     -10.247769      -278.8560
  32   2.0000     -10.247759      -278.8557
  33   2.0000     -10.247523      -278.8493
  34   2.0000     -10.247501      -278.8487
  35   2.0000     -10.240575      -278.6602
  36   2.0000     -10.240573      -278.6602
  37   2.0000     -10.240442      -278.6566
  38   2.0000     -10.240440      -278.6565
  39   2.0000     -10.240252      -278.6514
  40   2.0000     -10.240249      -278.6513
  41   2.0000     -10.240207      -278.6502
  42   2.0000     -10.240204      -278.6501
  43   2.0000     -10.239371      -278.6275
  44   2.0000     -10.239369      -278.6274
  45   2.0000     -10.239158      -278.6217
  46   2.0000     -10.239156      -278.6216
  47   2.0000     -10.239003      -278.6174
  48   2.0000     -10.239001      -278.6174
  49   2.0000     -10.238995      -278.6172
  50   2.0000     -10.238992      -278.6171
  51   2.0000     -10.238193      -278.5954
  52   2.0000     -10.238162      -278.5946
  53   2.0000     -10.233027      -278.4548
  54   2.0000     -10.233023      -278.4547
  55   2.0000     -10.233011      -278.4544
  56   2.0000     -10.233008      -278.4543
  57   2.0000      -1.023331       -27.8462
  58   2.0000      -1.023328       -27.8462
  59   2.0000      -0.922480       -25.1019
  60   2.0000      -0.900486       -24.5035
  61   2.0000      -0.900320       -24.4990
  62   2.0000      -0.880558       -23.9612
  63   2.0000      -0.871254       -23.7080
  64   2.0000      -0.869273       -23.6541
  65   2.0000      -0.869269       -23.6540
  66   2.0000      -0.869207       -23.6523
  67   2.0000      -0.853650       -23.2290
  68   2.0000      -0.828313       -22.5395
  69   2.0000      -0.826361       -22.4864
  70   2.0000      -0.813325       -22.1317
  71   2.0000      -0.802676       -21.8419
  72   2.0000      -0.790850       -21.5201
  73   2.0000      -0.781625       -21.2691
  74   2.0000      -0.781447       -21.2643
  75   2.0000      -0.777229       -21.1495
  76   2.0000      -0.771523       -20.9942
  77   2.0000      -0.768810       -20.9204
  78   2.0000      -0.768686       -20.9170
  79   2.0000      -0.763809       -20.7843
  80   2.0000      -0.756237       -20.5783
  81   2.0000      -0.747423       -20.3384
  82   2.0000      -0.735712       -20.0197
  83   2.0000      -0.735704       -20.0195
  84   2.0000      -0.731572       -19.9071
  85   2.0000      -0.710053       -19.3215
  86   2.0000      -0.709250       -19.2997
  87   2.0000      -0.689866       -18.7722
  88   2.0000      -0.669515       -18.2184
  89   2.0000      -0.668181       -18.1821
  90   2.0000      -0.653401       -17.7800
  91   2.0000      -0.649074       -17.6622
  92   2.0000      -0.647063       -17.6075
  93   2.0000      -0.640026       -17.4160
  94   2.0000      -0.631730       -17.1902
  95   2.0000      -0.622584       -16.9414
  96   2.0000      -0.621679       -16.9167
  97   2.0000      -0.615930       -16.7603
  98   2.0000      -0.607909       -16.5420
  99   2.0000      -0.601498       -16.3676
 100   2.0000      -0.597299       -16.2533
 101   2.0000      -0.591796       -16.1036
 102   2.0000      -0.591679       -16.1004
 103   2.0000      -0.586571       -15.9614
 104   2.0000      -0.578133       -15.7318
 105   2.0000      -0.565962       -15.4006
 106   2.0000      -0.558931       -15.2093
 107   2.0000      -0.558497       -15.1975
 108   2.0000      -0.536742       -14.6055
 109   2.0000      -0.535517       -14.5721
 110   2.0000      -0.534983       -14.5576
 111   2.0000      -0.530070       -14.4239
 112   2.0000      -0.525550       -14.3009
 113   2.0000      -0.520470       -14.1627
 114   2.0000      -0.516706       -14.0603
 115   2.0000      -0.506328       -13.7779
 116   2.0000      -0.504552       -13.7296
 117   2.0000      -0.489797       -13.3281
 118   2.0000      -0.485992       -13.2245
 119   2.0000      -0.481166       -13.0932
 120   2.0000      -0.480934       -13.0869
 121   2.0000      -0.471263       -12.8237
 122   2.0000      -0.470894       -12.8137
 123   2.0000      -0.467941       -12.7333
 124   2.0000      -0.467556       -12.7229
 125   2.0000      -0.467186       -12.7128
 126   2.0000      -0.464686       -12.6447
 127   2.0000      -0.458253       -12.4697
 128   2.0000      -0.458199       -12.4682
 129   2.0000      -0.455574       -12.3968
 130   2.0000      -0.454654       -12.3718
 131   2.0000      -0.451892       -12.2966
 132   2.0000      -0.450952       -12.2710
 133   2.0000      -0.450841       -12.2680
 134   2.0000      -0.449584       -12.2338
 135   2.0000      -0.449408       -12.2290
 136   2.0000      -0.445027       -12.1098
 137   2.0000      -0.442394       -12.0382
 138   2.0000      -0.442250       -12.0342
 139   2.0000      -0.441199       -12.0056
 140   2.0000      -0.438059       -11.9202
 141   2.0000      -0.434735       -11.8298
 142   2.0000      -0.431477       -11.7411
 143   2.0000      -0.430692       -11.7197
 144   2.0000      -0.416538       -11.3346
 145   2.0000      -0.413256       -11.2453
 146   2.0000      -0.411409       -11.1950
 147   2.0000      -0.407937       -11.1005
 148   2.0000      -0.406237       -11.0543
 149   2.0000      -0.401436       -10.9236
 150   2.0000      -0.399934       -10.8827
 151   2.0000      -0.394205       -10.7269
 152   2.0000      -0.390413       -10.6237
 153   2.0000      -0.389988       -10.6121
 154   2.0000      -0.387524       -10.5451
 155   2.0000      -0.380212       -10.3461
 156   2.0000      -0.379922       -10.3382
 157   2.0000      -0.379228       -10.3193
 158   2.0000      -0.378809       -10.3079
 159   2.0000      -0.376687       -10.2502
 160   2.0000      -0.374108       -10.1800
 161   2.0000      -0.373579       -10.1656
 162   2.0000      -0.369535       -10.0556
 163   2.0000      -0.367880       -10.0105
 164   2.0000      -0.365851        -9.9553
 165   2.0000      -0.365410        -9.9433
 166   2.0000      -0.356886        -9.7114
 167   2.0000      -0.356026        -9.6880
 168   2.0000      -0.351401        -9.5621
 169   2.0000      -0.351376        -9.5614
 170   2.0000      -0.351372        -9.5613
 171   2.0000      -0.348252        -9.4764
 172   2.0000      -0.340926        -9.2771
 173   2.0000      -0.336689        -9.1618
 174   2.0000      -0.333389        -9.0720
 175   2.0000      -0.323697        -8.8082
 176   2.0000      -0.304101        -8.2750
 177   2.0000      -0.298729        -8.1288
 178   2.0000      -0.296968        -8.0809
 179   2.0000      -0.283558        -7.7160
 180   2.0000      -0.283501        -7.7145
 181   2.0000      -0.278269        -7.5721
 182   2.0000      -0.272921        -7.4266
 183   2.0000      -0.272843        -7.4244
 184   2.0000      -0.270399        -7.3579
 185   2.0000      -0.270393        -7.3578
 186   2.0000      -0.239610        -6.5201
 187   2.0000      -0.230850        -6.2817
 188   2.0000      -0.230847        -6.2817
 189   2.0000      -0.221887        -6.0379
 190   2.0000      -0.211715        -5.7611
 191   2.0000      -0.194915        -5.3039
 192   0.0000      -0.090482        -2.4621
 193   0.0000      -0.059901        -1.6300
 194   0.0000      -0.033072        -0.8999
 195   0.0000      -0.033071        -0.8999
 196   0.0000      -0.020427        -0.5558

Total SCF time: 0 days 0 hours 55 min 48 sec

-----------------------------------------------------------------------------
         ABSORPTION SPECTRUM VIA TRANSITION ELECTRIC DIPOLE MOMENTS
-----------------------------------------------------------------------------
State   Energy    Wavelength  fosc         T2        TX        TY        TZ
        (cm-1)      (nm)                 (au**2)    (au)      (au)      (au)
-----------------------------------------------------------------------------
   1   20624.0    484.9   3.454642881  55.14507   7.42597  -0.00066  -0.00075
   2   23745.9    421.1   0.021993391   0.30492  -0.00016   0.49580  -0.24310
   3   26351.4    379.5   0.383511237   4.79127  -2.18890   0.00045   0.00023
   4   26744.8    373.9   0.054209586   0.66729   0.00079  -0.73232   0.36193
   5   27833.1    359.3   0.000032252   0.00038   0.00418   0.01641   0.00973

Dispersion correction           -0.130696182
FINAL SINGLE POINT ENERGY     -2225.379748167029
Dispersion correction                    ... done

DIPOLE MOMENT
-------------
                                X             Y             Z
Electronic contribution:      0.00173      -2.85815       1.72469
Nuclear contribution   :      0.00027       3.23406      -1.91110
                        -----------------------------------------
Total Dipole Moment    :      0.00200       0.37591      -0.18640
                        -----------------------------------------
Magnitude (a.u.)       :      0.41959
Magnitude (Debye)      :      1.06651

Rotational constants in cm-1:     0.005320     0.000247     0.000240
Rotational constants in MHz :   159.493313     7.403559     7.197636

                             ****ORCA TERMINATED NORMALLY****
TOTAL RUN TIME: 0 days 1 hours 58 minutes 19 seconds 351 msec
