                         Program Version 5.0.3 -  RELEASE  -
|  1> ! PBE0 def2-SVP D3BJ def2/J RIJCOSX tightSCF noautostart miniprint nopop defgrid3
|  2> ! EnGrad
|  3> %maxcore    4000
|  4> %pal    nprocs  8  end
|  5> %tddft  PrintLevel  3
|  6> 	IRootMult	Singlet
|  7> 	TDA	True
|  8> 	NRoots	5
|  9>         MaxDim  10
| 10> end
| 11> * xyzfile 0 1 orcaopt.xyz
| 12>
| 13>
| 14>                          ****END OF INPUT****

CARTESIAN COORDINATES (ANGSTROEM)
---------------------------------
  C     -0.000135    0.010760   -1.526275
  C     -0.000135   -0.160173   -0.002705
  C     -0.000010    1.205628    0.693786
  C     -1.177109   -1.009241    0.454557
  C     -2.524624   -0.746023    0.318313
  C     -3.485330   -1.666979    0.817986
  C     -4.898191   -1.454745    0.716719
  C     -5.529738   -0.359295    0.135719
  C     -6.936161   -0.146498    0.044683
  C     -7.905208   -1.052313    0.562123
  C     -9.257834   -0.797659    0.455798
  C     -9.721015    0.368131   -0.180026
  N    -11.096388    0.621826   -0.289003
  C    -11.736051    1.803883    0.075078
  C    -11.205563    2.957644    0.656518
  C    -12.083485    3.997237    0.947644
  C    -13.457132    3.894545    0.678271
  C    -13.983453    2.735175    0.119145
  C    -13.122622    1.676949   -0.183933
  C    -13.324254    0.352971   -0.729646
  C    -14.448400   -0.338514   -1.188889
  C    -14.290157   -1.624450   -1.693943
  C    -13.018788   -2.216021   -1.754784
  C    -11.883764   -1.548503   -1.304900
  C    -12.051134   -0.265570   -0.778901
  C     -8.782722    1.277479   -0.704808
  C     -7.431046    1.025933   -0.589289
  C     -3.008790   -2.847307    1.448057
  C     -1.656068   -3.112522    1.584570
  C     -0.728939   -2.189433    1.086736
  C      0.728341   -2.189572    1.086699
  C      1.655317   -3.112784    1.584595
  C      3.008081   -2.847809    1.448054
  C      3.484815   -1.667606    0.817891
  C      4.897706   -1.455711    0.716411
  C      5.529460   -0.361394    0.133481
  C      6.935907   -0.148593    0.042928
  C      7.431103    1.021780   -0.594600
  C      8.782833    1.273065   -0.710074
  C      9.720874    0.365557   -0.181668
  N     11.096289    0.618946   -0.290720
  C     11.735765    1.802136    0.070022
  C     11.204919    2.957893    0.647148
  C     12.082718    3.998341    0.935591
  C     13.456587    3.894594    0.667771
  C     13.983249    2.733306    0.112961
  C     13.122549    1.674186   -0.187343
  C     13.324519    0.348378   -0.728476
  C     14.448984   -0.344728   -1.184472
  C     14.291039   -1.632311   -1.685414
  C     13.019659   -2.223951   -1.745382
  C     11.884322   -1.554831   -1.298681
  C     12.051377   -0.270185   -0.776777
  C      9.257376   -0.798066    0.457896
  C      7.904706   -1.052457    0.564244
  C      2.524260   -0.746423    0.318338
  C      1.176703   -1.009452    0.454519
  H      0.890418    0.568622   -1.854935
  H     -0.890519    0.568904   -1.854915
  H     -0.000294   -0.966172   -2.031145
  H     -0.890371    1.787407    0.409012
  H      0.890481    1.787233    0.409063
  H     -0.000050    1.088838    1.787250
  H     -2.855389    0.171970   -0.172299
  H     -5.521838   -2.243550    1.146842
  H     -4.908116    0.428617   -0.299060
  H     -7.580550   -1.960315    1.072536
  H     -9.982106   -1.491922    0.886377
  H    -10.142158    3.040349    0.885405
  H    -11.692251    4.910912    1.401329
  H    -14.117162    4.730646    0.919000
  H    -15.054890    2.647923   -0.075947
  H    -15.435253    0.129121   -1.155885
  H    -15.159585   -2.177994   -2.054965
  H    -12.913810   -3.221520   -2.169083
  H    -10.897709   -2.010347   -1.371732
  H     -9.136224    2.171408   -1.222001
  H     -6.714851    1.736572   -1.010024
  H     -3.741787   -3.560479    1.834264
  H     -1.321178   -4.029444    2.075332
  H      1.320273   -4.029615    2.075425
  H      3.740962   -3.561102    1.834257
  H      5.521222   -2.243991    1.147687
  H      4.908008    0.425284   -0.303771
  H      6.715126    1.730925   -1.018217
  H      9.136573    2.165273   -1.230066
  H     10.141328    3.041517    0.874835
  H     11.691190    4.913563    1.385893
  H     14.116508    4.731412    0.906301
  H     15.054844    2.645264   -0.080905
  H     15.435854    0.122922   -1.152176
  H     15.160716   -2.187132   -2.043866
  H     12.914926   -3.230802   -2.156445
  H     10.898279   -2.016801   -1.364827
  H      9.981417   -1.490740    0.891413
  H      7.579798   -1.958549    1.077884
  H      2.855186    0.171712   -0.171902

ORBITAL ENERGIES
----------------

  NO   OCC          E(Eh)            E(eV)
   0   2.0000     -14.449859      -393.2007
   1   2.0000     -14.449859      -393.2007
   2   2.0000     -10.292539      -280.0742
   3   2.0000     -10.292539      -280.0742
   4   2.0000     -10.276906      -279.6488
   5   2.0000     -10.276906      -279.6488
   6   2.0000     -10.276852      -279.6474
   7   2.0000     -10.276851      -279.6473
   8   2.0000     -10.263740      -279.2906
   9   2.0000     -10.259070      -279.1635
  10   2.0000     -10.259069      -279.1635
  11   2.0000     -10.256017      -279.0804
  12   2.0000     -10.256010      -279.0802
  13   2.0000     -10.253164      -279.0028
  14   2.0000     -10.253162      -279.0027
  15   2.0000     -10.252884      -278.9951
  16   2.0000     -10.252883      -278.9951
  17   2.0000     -10.252701      -278.9902
  18   2.0000     -10.252700      -278.9902
  19   2.0000     -10.252544      -278.9859
  20   2.0000     -10.252543      -278.9859
  21   2.0000     -10.252098      -278.9738
  22   2.0000     -10.252098      -278.9738
  23   2.0000     -10.251575      -278.9595
  24   2.0000     -10.251574      -278.9595
  25   2.0000     -10.249794      -278.9111
  26   2.0000     -10.249647      -278.9071
  27   2.0000     -10.247882      -278.8590
  28   2.0000     -10.247807      -278.8570
  29   2.0000     -10.247610      -278.8516
  30   2.0000     -10.247566      -278.8505
  31   2.0000     -10.247300      -278.8432
  32   2.0000     -10.247276      -278.8426
  33   2.0000     -10.246934      -278.8333
  34   2.0000     -10.246903      -278.8324
  35   2.0000     -10.240771      -278.6656
  36   2.0000     -10.240771      -278.6656
  37   2.0000     -10.240638      -278.6619
  38   2.0000     -10.240638      -278.6619
  39   2.0000     -10.240407      -278.6556
  40   2.0000     -10.240407      -278.6556
  41   2.0000     -10.240354      -278.6542
  42   2.0000     -10.240354      -278.6542
  43   2.0000     -10.239643      -278.6348
  44   2.0000     -10.239642      -278.6348
  45   2.0000     -10.239429      -278.6290
  46   2.0000     -10.239429      -278.6290
  47   2.0000     -10.239169      -278.6220
  48   2.0000     -10.239169      -278.6220
  49   2.0000     -10.239157      -278.6216
  50   2.0000     -10.239157      -278.6216
  51   2.0000     -10.237509      -278.5768
  52   2.0000     -10.237479      -278.5760
  53   2.0000     -10.233224      -278.4602
  54   2.0000     -10.233223      -278.4602
  55   2.0000     -10.233208      -278.4597
  56   2.0000     -10.233208      -278.4597
  57   2.0000      -1.023697       -27.8562
  58   2.0000      -1.023696       -27.8562
  59   2.0000      -0.922680       -25.1074
  60   2.0000      -0.899917       -24.4880
  61   2.0000      -0.899742       -24.4832
  62   2.0000      -0.881805       -23.9951
  63   2.0000      -0.871240       -23.7076
  64   2.0000      -0.869596       -23.6629
  65   2.0000      -0.869596       -23.6629
  66   2.0000      -0.869459       -23.6592
  67   2.0000      -0.853368       -23.2213
  68   2.0000      -0.827614       -22.5205
  69   2.0000      -0.826348       -22.4861
  70   2.0000      -0.812681       -22.1142
  71   2.0000      -0.802563       -21.8389
  72   2.0000      -0.790880       -21.5209
  73   2.0000      -0.782194       -21.2846
  74   2.0000      -0.782013       -21.2796
  75   2.0000      -0.777239       -21.1497
  76   2.0000      -0.769189       -20.9307
  77   2.0000      -0.769067       -20.9274
  78   2.0000      -0.768613       -20.9150
  79   2.0000      -0.762369       -20.7451
  80   2.0000      -0.755195       -20.5499
  81   2.0000      -0.748573       -20.3697
  82   2.0000      -0.736023       -20.0282
  83   2.0000      -0.736018       -20.0281
  84   2.0000      -0.729810       -19.8591
  85   2.0000      -0.711165       -19.3518
  86   2.0000      -0.708695       -19.2846
  87   2.0000      -0.689190       -18.7538
  88   2.0000      -0.670575       -18.2473
  89   2.0000      -0.668711       -18.1966
  90   2.0000      -0.652010       -17.7421
  91   2.0000      -0.648995       -17.6601
  92   2.0000      -0.646313       -17.5871
  93   2.0000      -0.640454       -17.4276
  94   2.0000      -0.630879       -17.1671
  95   2.0000      -0.622720       -16.9451
  96   2.0000      -0.621575       -16.9139
  97   2.0000      -0.616220       -16.7682
  98   2.0000      -0.609429       -16.5834
  99   2.0000      -0.601739       -16.3741
 100   2.0000      -0.597369       -16.2552
 101   2.0000      -0.592048       -16.1104
 102   2.0000      -0.591939       -16.1075
 103   2.0000      -0.586608       -15.9624
 104   2.0000      -0.578505       -15.7419
 105   2.0000      -0.565954       -15.4004
 106   2.0000      -0.559025       -15.2119
 107   2.0000      -0.558695       -15.2029
 108   2.0000      -0.536946       -14.6110
 109   2.0000      -0.535638       -14.5755
 110   2.0000      -0.533867       -14.5273
 111   2.0000      -0.529455       -14.4072
 112   2.0000      -0.525875       -14.3098
 113   2.0000      -0.520162       -14.1543
 114   2.0000      -0.516237       -14.0475
 115   2.0000      -0.506055       -13.7705
 116   2.0000      -0.504781       -13.7358
 117   2.0000      -0.489003       -13.3064
 118   2.0000      -0.485473       -13.2104
 119   2.0000      -0.481454       -13.1010
 120   2.0000      -0.481068       -13.0905
 121   2.0000      -0.471399       -12.8274
 122   2.0000      -0.471119       -12.8198
 123   2.0000      -0.468061       -12.7366
 124   2.0000      -0.467389       -12.7183
 125   2.0000      -0.466791       -12.7020
 126   2.0000      -0.464494       -12.6395
 127   2.0000      -0.458038       -12.4639
 128   2.0000      -0.457983       -12.4624
 129   2.0000      -0.455674       -12.3995
 130   2.0000      -0.455095       -12.3838
 131   2.0000      -0.451360       -12.2821
 132   2.0000      -0.451013       -12.2727
 133   2.0000      -0.450794       -12.2667
 134   2.0000      -0.449604       -12.2343
 135   2.0000      -0.449526       -12.2322
 136   2.0000      -0.444901       -12.1064
 137   2.0000      -0.442634       -12.0447
 138   2.0000      -0.442470       -12.0402
 139   2.0000      -0.441808       -12.0222
 140   2.0000      -0.438312       -11.9271
 141   2.0000      -0.434646       -11.8273
 142   2.0000      -0.431499       -11.7417
 143   2.0000      -0.431176       -11.7329
 144   2.0000      -0.415208       -11.2984
 145   2.0000      -0.412827       -11.2336
 146   2.0000      -0.411638       -11.2012
 147   2.0000      -0.407485       -11.0882
 148   2.0000      -0.405723       -11.0403
 149   2.0000      -0.402637       -10.9563
 150   2.0000      -0.399652       -10.8751
 151   2.0000      -0.395702       -10.7676
 152   2.0000      -0.390983       -10.6392
 153   2.0000      -0.390244       -10.6191
 154   2.0000      -0.387797       -10.5525
 155   2.0000      -0.380303       -10.3486
 156   2.0000      -0.380076       -10.3424
 157   2.0000      -0.379127       -10.3166
 158   2.0000      -0.379120       -10.3164
 159   2.0000      -0.374366       -10.1870
 160   2.0000      -0.374356       -10.1867
 161   2.0000      -0.370696       -10.0871
 162   2.0000      -0.370034       -10.0691
 163   2.0000      -0.367300        -9.9947
 164   2.0000      -0.365051        -9.9336
 165   2.0000      -0.364642        -9.9224
 166   2.0000      -0.357035        -9.7154
 167   2.0000      -0.356413        -9.6985
 168   2.0000      -0.351674        -9.5695
 169   2.0000      -0.351670        -9.5694
 170   2.0000      -0.350974        -9.5505
 171   2.0000      -0.348403        -9.4805
 172   2.0000      -0.340214        -9.2577
 173   2.0000      -0.337191        -9.1754
 174   2.0000      -0.335980        -9.1425
 175   2.0000      -0.323687        -8.8080
 176   2.0000      -0.304134        -8.2759
 177   2.0000      -0.299008        -8.1364
 178   2.0000      -0.297163        -8.0862
 179   2.0000      -0.284207        -7.7337
 180   2.0000      -0.284134        -7.7317
 181   2.0000      -0.276820        -7.5327
 182   2.0000      -0.271681        -7.3928
 183   2.0000      -0.270626        -7.3641
 184   2.0000      -0.270615        -7.3638
 185   2.0000      -0.270021        -7.3476
 186   2.0000      -0.238904        -6.5009
 187   2.0000      -0.231153        -6.2900
 188   2.0000      -0.231152        -6.2900
 189   2.0000      -0.223361        -6.0780
 190   2.0000      -0.210859        -5.7378
 191   2.0000      -0.197282        -5.3683
 192   0.0000      -0.087143        -2.3713
 193   0.0000      -0.061896        -1.6843
 194   0.0000      -0.033259        -0.9050
 195   0.0000      -0.033258        -0.9050
 196   0.0000      -0.021257        -0.5784

Total SCF time: 0 days 0 hours 49 min 57 sec

-----------------------------------------------------------------------------
         ABSORPTION SPECTRUM VIA TRANSITION ELECTRIC DIPOLE MOMENTS
-----------------------------------------------------------------------------
State   Energy    Wavelength  fosc         T2        TX        TY        TZ
        (cm-1)      (nm)                 (au**2)    (au)      (au)      (au)
-----------------------------------------------------------------------------
   1   21349.2    468.4   3.219593575  49.64718  -7.04608   0.00099   0.00061
   2   24336.3    410.9   0.029123741   0.39397   0.00015   0.56708  -0.26906
   3   27015.2    370.2   0.069918727   0.85204  -0.00018   0.83255  -0.39863
   4   27211.9    367.5   0.363715719   4.40027   2.09768  -0.00025  -0.00039
   5   28509.5    350.8   0.000178813   0.00206   0.00022   0.03931   0.02279

Dispersion correction           -0.130685792
FINAL SINGLE POINT ENERGY     -2225.378992416101
Dispersion correction                    ... done

DIPOLE MOMENT
-------------
                                X             Y             Z
Electronic contribution:     -0.00054      -2.61884       1.64924
Nuclear contribution   :      0.00033       3.04288      -1.85209
                        -----------------------------------------
Total Dipole Moment    :     -0.00021       0.42405      -0.20285
                        -----------------------------------------
Magnitude (a.u.)       :      0.47007
Magnitude (Debye)      :      1.19482

Rotational constants in cm-1:     0.005189     0.000248     0.000240
Rotational constants in MHz :   155.576316     7.425674     7.210004

                             ****ORCA TERMINATED NORMALLY****
TOTAL RUN TIME: 0 days 1 hours 55 minutes 13 seconds 152 msec
