                         Program Version 5.0.3 -  RELEASE  -
|  1> ! PBE0 def2-SVP D3BJ def2/J RIJCOSX tightSCF noautostart miniprint nopop defgrid3
|  2> ! EnGrad
|  3> %maxcore    4000
|  4> %pal    nprocs  20  end
|  5> %tddft  PrintLevel  3
|  6> 	TDA	False
|  7> 	DoSOC	True
|  8> 	NRoots	5
|  9> 	IRoot	1
| 10>         MaxDim  10
| 11> end
| 12> * xyzfile 0 1 /gpfs/fs0/scratch/a/aspuru/malcolms/aiida/d2/e6/9193-6c71-4c68-83d8-0f2c21284575/orca_freq.xyz
| 13>
| 14>
| 15>                          ****END OF INPUT****

CARTESIAN COORDINATES (ANGSTROEM)
---------------------------------
  C     -3.790290    0.571022    0.395887
  C     -2.902169   -0.247936   -0.208572
  C     -1.458415   -0.147683   -0.138410
  C     -0.734965    0.813147    0.556774
  N      0.604441    0.902061    0.620878
  C      1.398466    0.044422   -0.000659
  C      2.822551    0.253084    0.150499
  C      3.814347   -0.487902   -0.394019
  C      5.242543   -0.259419   -0.226996
  C      5.776289    0.769401    0.571568
  C      7.145114    0.939831    0.701764
  C      8.032612    0.093345    0.022311
  N      9.421171    0.272025    0.150600
  C     10.337463   -0.713735    0.505583
  C     10.117903   -2.049588    0.848406
  C     11.224796   -2.819238    1.192141
  C     12.519882   -2.278261    1.202800
  C     12.730944   -0.943298    0.877950
  C     11.635665   -0.147861    0.529013
  C     11.489324    1.244572    0.169031
  C     12.393451    2.298089    0.005568
  C     11.915220    3.544105   -0.382949
  C     10.545823    3.741116   -0.619402
  C      9.625113    2.709617   -0.464208
  C     10.108383    1.464611   -0.055956
  C      7.520706   -0.930789   -0.780557
  C      6.147647   -1.104896   -0.891761
  C      0.792896   -1.016322   -0.768838
  N      1.399576   -1.977006   -1.463898
  S      0.233426   -2.893526   -2.127216
  N     -1.081534   -2.121546   -1.568476
  C     -0.646466   -1.101550   -0.830202
  C     -5.242125    0.475881    0.328297
  C     -6.021494    1.400816    1.044329
  C     -7.409154    1.351750    1.026110
  C     -8.064432    0.376647    0.268371
  N     -9.469365    0.323746    0.235377
  C    -10.314806    1.384658   -0.074598
  C     -9.999049    2.690938   -0.454222
  C    -11.052689    3.555026   -0.735094
  C    -12.389155    3.134868   -0.648600
  C    -12.697606    1.828627   -0.286968
  C    -11.657533    0.939891    0.000529
  C    -11.613149   -0.455607    0.375316
  C    -12.594851   -1.420499    0.619179
  C    -12.204960   -2.700205    0.996798
  C    -10.845717   -3.018610    1.142602
  C     -9.848918   -2.077148    0.906432
  C    -10.245363   -0.798084    0.510128
  C     -7.303983   -0.547751   -0.461253
  C     -5.919546   -0.502076   -0.424123
  H     -3.415686    1.398473    1.007432
  H     -3.260861   -1.082021   -0.818201
  H     -1.270986    1.586738    1.116412
  H      3.044283    1.118051    0.781395
  H      3.537870   -1.338979   -1.021636
  H      5.107298    1.438324    1.116193
  H      7.544397    1.724273    1.347354
  H      9.113731   -2.475959    0.856111
  H     11.078527   -3.867468    1.463253
  H     13.366180   -2.912108    1.475895
  H     13.736972   -0.517754    0.898773
  H     13.460841    2.140207    0.176904
  H     12.609508    4.376933   -0.513080
  H     10.191820    4.724825   -0.936678
  H      8.564546    2.869454   -0.663967
  H      8.207982   -1.579155   -1.327002
  H      5.756924   -1.906664   -1.523488
  H     -5.521131    2.166705    1.642707
  H     -7.996478    2.061712    1.611274
  H     -8.963131    3.023157   -0.536724
  H    -10.831135    4.582513   -1.033227
  H    -13.191294    3.840651   -0.874456
  H    -13.737182    1.497195   -0.231724
  H    -13.653039   -1.168179    0.518182
  H    -12.960788   -3.464600    1.189152
  H    -10.560651   -4.026763    1.452522
  H     -8.795556   -2.330310    1.035598
  H     -7.814440   -1.295247   -1.071438
  H     -5.353197   -1.231370   -1.006468

ORBITAL ENERGIES
----------------

  NO   OCC          E(Eh)            E(eV)
   0   2.0000     -89.112674     -2424.8791
   1   2.0000     -14.451745      -393.2520
   2   2.0000     -14.451357      -393.2414
   3   2.0000     -14.445286      -393.0762
   4   2.0000     -14.441079      -392.9617
   5   2.0000     -14.402053      -391.8998
   6   2.0000     -10.304965      -280.4124
   7   2.0000     -10.303626      -280.3759
   8   2.0000     -10.300825      -280.2997
   9   2.0000     -10.296643      -280.1859
  10   2.0000     -10.295978      -280.1678
  11   2.0000     -10.284312      -279.8503
  12   2.0000     -10.278627      -279.6957
  13   2.0000     -10.278546      -279.6935
  14   2.0000     -10.278432      -279.6904
  15   2.0000     -10.278361      -279.6884
  16   2.0000     -10.270581      -279.4767
  17   2.0000     -10.263191      -279.2756
  18   2.0000     -10.261277      -279.2235
  19   2.0000     -10.259006      -279.1617
  20   2.0000     -10.257196      -279.1125
  21   2.0000     -10.256908      -279.1047
  22   2.0000     -10.256677      -279.0984
  23   2.0000     -10.256614      -279.0967
  24   2.0000     -10.256597      -279.0962
  25   2.0000     -10.256365      -279.0899
  26   2.0000     -10.256045      -279.0812
  27   2.0000     -10.255992      -279.0797
  28   2.0000     -10.255536      -279.0673
  29   2.0000     -10.255328      -279.0617
  30   2.0000     -10.249686      -278.9081
  31   2.0000     -10.242059      -278.7006
  32   2.0000     -10.241959      -278.6979
  33   2.0000     -10.241926      -278.6970
  34   2.0000     -10.241909      -278.6965
  35   2.0000     -10.241854      -278.6950
  36   2.0000     -10.241827      -278.6943
  37   2.0000     -10.241790      -278.6933
  38   2.0000     -10.241760      -278.6925
  39   2.0000     -10.241090      -278.6742
  40   2.0000     -10.240941      -278.6702
  41   2.0000     -10.240875      -278.6684
  42   2.0000     -10.240727      -278.6644
  43   2.0000     -10.240501      -278.6582
  44   2.0000     -10.240408      -278.6557
  45   2.0000     -10.240403      -278.6555
  46   2.0000     -10.240378      -278.6548
  47   2.0000     -10.234466      -278.4940
  48   2.0000     -10.234402      -278.4922
  49   2.0000     -10.234316      -278.4899
  50   2.0000     -10.234309      -278.4897
  51   2.0000      -8.110471      -220.6971
  52   2.0000      -6.053629      -164.7276
  53   2.0000      -6.046270      -164.5274
  54   2.0000      -6.045107      -164.4957
  55   2.0000      -1.070836       -29.1389
  56   2.0000      -1.025929       -27.9170
  57   2.0000      -1.025709       -27.9110
  58   2.0000      -0.980139       -26.6709
  59   2.0000      -0.932822       -25.3834
  60   2.0000      -0.905174       -24.6311
  61   2.0000      -0.904706       -24.6183
  62   2.0000      -0.874375       -23.7929
  63   2.0000      -0.873318       -23.7642
  64   2.0000      -0.871074       -23.7031
  65   2.0000      -0.870942       -23.6995
  66   2.0000      -0.854306       -23.2469
  67   2.0000      -0.835867       -22.7451
  68   2.0000      -0.825936       -22.4749
  69   2.0000      -0.814959       -22.1762
  70   2.0000      -0.803058       -21.8523
  71   2.0000      -0.790707       -21.5162
  72   2.0000      -0.784958       -21.3598
  73   2.0000      -0.784696       -21.3527
  74   2.0000      -0.774470       -21.0744
  75   2.0000      -0.770914       -20.9776
  76   2.0000      -0.770795       -20.9744
  77   2.0000      -0.759247       -20.6602
  78   2.0000      -0.742000       -20.1908
  79   2.0000      -0.737414       -20.0660
  80   2.0000      -0.737305       -20.0631
  81   2.0000      -0.726669       -19.7737
  82   2.0000      -0.702392       -19.1131
  83   2.0000      -0.679099       -18.4792
  84   2.0000      -0.675042       -18.3688
  85   2.0000      -0.665343       -18.1049
  86   2.0000      -0.652432       -17.7536
  87   2.0000      -0.651356       -17.7243
  88   2.0000      -0.649114       -17.6633
  89   2.0000      -0.641773       -17.4635
  90   2.0000      -0.626510       -17.0482
  91   2.0000      -0.624443       -16.9920
  92   2.0000      -0.623994       -16.9797
  93   2.0000      -0.610458       -16.6114
  94   2.0000      -0.599732       -16.3195
  95   2.0000      -0.595596       -16.2070
  96   2.0000      -0.593545       -16.1512
  97   2.0000      -0.593092       -16.1389
  98   2.0000      -0.574752       -15.6398
  99   2.0000      -0.566452       -15.4139
 100   2.0000      -0.561251       -15.2724
 101   2.0000      -0.557526       -15.1711
 102   2.0000      -0.543191       -14.7810
 103   2.0000      -0.537869       -14.6362
 104   2.0000      -0.537056       -14.6140
 105   2.0000      -0.526772       -14.3342
 106   2.0000      -0.524406       -14.2698
 107   2.0000      -0.517468       -14.0810
 108   2.0000      -0.512761       -13.9529
 109   2.0000      -0.505042       -13.7429
 110   2.0000      -0.495662       -13.4877
 111   2.0000      -0.494541       -13.4572
 112   2.0000      -0.483467       -13.1558
 113   2.0000      -0.482168       -13.1205
 114   2.0000      -0.480641       -13.0789
 115   2.0000      -0.474250       -12.9050
 116   2.0000      -0.472388       -12.8543
 117   2.0000      -0.472101       -12.8465
 118   2.0000      -0.469158       -12.7664
 119   2.0000      -0.465405       -12.6643
 120   2.0000      -0.456334       -12.4175
 121   2.0000      -0.455172       -12.3859
 122   2.0000      -0.453765       -12.3476
 123   2.0000      -0.453116       -12.3299
 124   2.0000      -0.451638       -12.2897
 125   2.0000      -0.450223       -12.2512
 126   2.0000      -0.444115       -12.0850
 127   2.0000      -0.443976       -12.0812
 128   2.0000      -0.442230       -12.0337
 129   2.0000      -0.438566       -11.9340
 130   2.0000      -0.437484       -11.9045
 131   2.0000      -0.433767       -11.8034
 132   2.0000      -0.431834       -11.7508
 133   2.0000      -0.424498       -11.5512
 134   2.0000      -0.419401       -11.4125
 135   2.0000      -0.411702       -11.2030
 136   2.0000      -0.410524       -11.1709
 137   2.0000      -0.407915       -11.0999
 138   2.0000      -0.404399       -11.0042
 139   2.0000      -0.399456       -10.8697
 140   2.0000      -0.391874       -10.6634
 141   2.0000      -0.385276       -10.4839
 142   2.0000      -0.381933       -10.3929
 143   2.0000      -0.381126       -10.3710
 144   2.0000      -0.380426       -10.3519
 145   2.0000      -0.380078       -10.3424
 146   2.0000      -0.375824       -10.2267
 147   2.0000      -0.375617       -10.2211
 148   2.0000      -0.373619       -10.1667
 149   2.0000      -0.371186       -10.1005
 150   2.0000      -0.357948        -9.7403
 151   2.0000      -0.357561        -9.7297
 152   2.0000      -0.353195        -9.6109
 153   2.0000      -0.353055        -9.6071
 154   2.0000      -0.351898        -9.5756
 155   2.0000      -0.351055        -9.5527
 156   2.0000      -0.347773        -9.4634
 157   2.0000      -0.334454        -9.1010
 158   2.0000      -0.329006        -8.9527
 159   2.0000      -0.326844        -8.8939
 160   2.0000      -0.309318        -8.4170
 161   2.0000      -0.301044        -8.1918
 162   2.0000      -0.300166        -8.1679
 163   2.0000      -0.292306        -7.9540
 164   2.0000      -0.286930        -7.8078
 165   2.0000      -0.286523        -7.7967
 166   2.0000      -0.281715        -7.6659
 167   2.0000      -0.272090        -7.4040
 168   2.0000      -0.271993        -7.4013
 169   2.0000      -0.263388        -7.1672
 170   2.0000      -0.232453        -6.3254
 171   2.0000      -0.232336        -6.3222
 172   2.0000      -0.231567        -6.3012
 173   2.0000      -0.217564        -5.9202
 174   2.0000      -0.208941        -5.6856
 175   0.0000      -0.115080        -3.1315
 176   0.0000      -0.065103        -1.7715
 177   0.0000      -0.051117        -1.3910
 178   0.0000      -0.034645        -0.9427
 179   0.0000      -0.034564        -0.9405

Total SCF time: 0 days 0 hours 6 min 21 sec

---------------------------------------------------------------------------------------------------------------------
                    SOC CORRECTED ABSORPTION SPECTRUM VIA TRANSITION ELECTRIC DIPOLE MOMENTS*
---------------------------------------------------------------------------------------------------------------------
   State    Energy  Wavelength   fosc         T2              TX                    TY                    TZ
            (cm-1)    (nm)                  (au**2)          (au)                  (au)                  (au)
---------------------------------------------------------------------------------------------------------------------
   0   1    8972.1   1114.6   0.000000000   0.00000 ( -0.00005, -0.00009) ( -0.00000, -0.00001) ( -0.00000, -0.00000)
   0   2    8972.1   1114.6   0.000000000   0.00000 (  0.00001,  0.00001) (  0.00001,  0.00001) (  0.00000,  0.00001)
   0   3    8972.1   1114.6   0.000000000   0.00000 (  0.00001,  0.00003) (  0.00002,  0.00007) (  0.00002,  0.00005)
   0   4   17176.7    582.2   1.115045559  21.37122 (  4.14885, -2.03908) (  0.01746, -0.00858) (  0.00189, -0.00093)
   0   5   17306.1    577.8   0.000000003   0.00000 ( -0.00007, -0.00023) (  0.00000,  0.00000) (  0.00000,  0.00000)
   0   6   17306.1    577.8   0.000000004   0.00000 (  0.00015,  0.00024) ( -0.00000, -0.00000) ( -0.00000, -0.00000)
   0   7   17306.1    577.8   0.000000001   0.00000 ( -0.00011, -0.00011) (  0.00000,  0.00000) (  0.00000,  0.00000)
   0   8   19558.7    511.3   0.006028827   0.10148 ( -0.14160,  0.07907) ( -0.19207,  0.10726) ( -0.14288,  0.07979)
   0   9   19587.9    510.5   0.000000000   0.00000 (  0.00002,  0.00001) ( -0.00003, -0.00002) ( -0.00002, -0.00002)
   0  10   19587.9    510.5   0.000000000   0.00000 ( -0.00003, -0.00004) ( -0.00002, -0.00003) ( -0.00002, -0.00003)
   0  11   19587.9    510.5   0.000000000   0.00000 ( -0.00001, -0.00003) ( -0.00000, -0.00001) ( -0.00000, -0.00001)
   0  12   20568.7    486.2   0.000000000   0.00000 (  0.00000,  0.00000) (  0.00001,  0.00000) (  0.00001,  0.00000)
   0  13   20568.7    486.2   0.000000000   0.00000 ( -0.00000, -0.00002) (  0.00001,  0.00005) (  0.00001,  0.00004)
   0  14   20568.7    486.2   0.000000001   0.00000 ( -0.00006, -0.00004) (  0.00005,  0.00004) (  0.00004,  0.00003)
   0  15   21417.3    466.9   0.000000000   0.00000 (  0.00001,  0.00002) ( -0.00000, -0.00001) ( -0.00000, -0.00000)
   0  16   21417.3    466.9   0.000000000   0.00000 (  0.00000,  0.00000) ( -0.00002, -0.00003) ( -0.00001, -0.00002)
   0  17   21417.3    466.9   0.000000001   0.00000 (  0.00006, -0.00003) ( -0.00005,  0.00002) ( -0.00003,  0.00002)
   0  18   22243.6    449.6   0.110597377   1.63687 (  0.85473,  0.95185) ( -0.00857, -0.00954) ( -0.00722, -0.00804)
   0  19   22872.8    437.2   0.000020051   0.00029 (  0.00138,  0.00275) ( -0.00710, -0.01413) (  0.00243,  0.00482)
   0  20   23032.4    434.2   0.000016454   0.00024 ( -0.00352, -0.00369) (  0.00941,  0.00986) ( -0.00334, -0.00350)

Dispersion correction           -0.109732632
FINAL SINGLE POINT ENERGY     -2400.297692060607
Dispersion correction                    ... done

DIPOLE MOMENT
-------------
                                X             Y             Z
Electronic contribution:      1.01961      -8.03152      -5.84749
Nuclear contribution   :     -1.81202       8.89953       6.49584
                        -----------------------------------------
Total Dipole Moment    :     -0.79240       0.86801       0.64836
                        -----------------------------------------
Magnitude (a.u.)       :      1.34228
Magnitude (Debye)      :      3.41181

Rotational constants in cm-1:     0.006334     0.000340     0.000329
Rotational constants in MHz :   189.896022    10.193483     9.848807

                             ****ORCA TERMINATED NORMALLY****
TOTAL RUN TIME: 0 days 0 hours 29 minutes 35 seconds 834 msec
