                         Program Version 5.0.3 -  RELEASE  -
|  1> ! PBE0 def2-SVP D3BJ def2/J RIJCOSX tightSCF noautostart miniprint nopop defgrid3 Opt
|  2> %maxcore    4000
|  3> %pal    nprocs  40  end
|  4> %geom	Convergence	loose
|  5> 	MaxIter	5
|  6> end
|  7> %tddft  PrintLevel  3
|  8> 	IRootMult	Singlet
|  9> 	NRoots	5
| 10> 	IRoot	1
| 11> 	TDA	True
| 12>         MaxDim  10
| 13> end
| 14> * xyzfile 0 1 S0_XTB_OPT_XYZ.xyz
| 15>
| 16>
| 17>                          ****END OF INPUT****
Dispersion correction           -0.110404848
FINAL SINGLE POINT ENERGY     -2400.249407708957
Dispersion correction                    ... done
Dispersion correction           -0.110032187
FINAL SINGLE POINT ENERGY     -2400.260516980695
Dispersion correction                    ... done
Dispersion correction           -0.109988281
FINAL SINGLE POINT ENERGY     -2400.261798847477
Dispersion correction                    ... done
Dispersion correction           -0.110017861
FINAL SINGLE POINT ENERGY     -2400.262128145271
Dispersion correction                    ... done
Dispersion correction           -0.110036343
FINAL SINGLE POINT ENERGY     -2400.262179388378
Dispersion correction                    ... done
                    ***********************HURRAY********************

CARTESIAN COORDINATES (ANGSTROEM)
---------------------------------
  C     -3.767045    0.673399    0.452246
  C     -2.866995   -0.158949   -0.143822
  C     -1.436299   -0.077755   -0.086906
  C     -0.714932    0.912830    0.613363
  N      0.601793    1.000644    0.674586
  C      1.374143    0.095371    0.034034
  C      2.791650    0.290149    0.172339
  C      3.775184   -0.479257   -0.371988
  C      5.196214   -0.257456   -0.214843
  C      5.747003    0.797878    0.546496
  C      7.114894    0.963810    0.664892
  C      7.994543    0.079793    0.019974
  N      9.384063    0.250514    0.139180
  C     10.294514   -0.736694    0.501020
  C     10.061910   -2.064535    0.868284
  C     11.163849   -2.839496    1.216744
  C     12.462438   -2.309237    1.211655
  C     12.685792   -0.978137    0.867310
  C     11.597816   -0.180794    0.511772
  C     11.458563    1.210694    0.137039
  C     12.365962    2.254179   -0.046330
  C     11.889624    3.498761   -0.451857
  C     10.521647    3.699899   -0.687868
  C      9.596695    2.674890   -0.514309
  C     10.077195    1.435317   -0.084452
  C      7.471932   -0.973879   -0.741617
  C      6.100375   -1.135349   -0.850312
  C      0.778965   -0.966853   -0.717818
  N      1.405925   -1.934842   -1.402002
  S      0.214754   -2.874934   -2.069446
  N     -1.119842   -2.072670   -1.498430
  C     -0.653399   -1.051446   -0.776941
  C     -5.203839    0.553855    0.369293
  C     -6.018415    1.481003    1.056847
  C     -7.400161    1.410332    1.015815
  C     -8.028852    0.399890    0.274160
  N     -9.428487    0.319277    0.226591
  C    -10.293204    1.372685   -0.055500
  C     -9.996808    2.693314   -0.402027
  C    -11.064760    3.545488   -0.666746
  C    -12.391622    3.096584   -0.601532
  C    -12.680117    1.771443   -0.281132
  C    -11.627418    0.898763   -0.008759
  C    -11.556756   -0.510693    0.317325
  C    -12.517660   -1.499984    0.522008
  C    -12.100207   -2.784415    0.865316
  C    -10.737704   -3.077771    1.020002
  C     -9.759852   -2.107139    0.824195
  C    -10.182973   -0.827961    0.454357
  C     -7.240138   -0.531696   -0.421404
  C     -5.861273   -0.455300   -0.373213
  H     -3.400851    1.510968    1.053430
  H     -3.228045   -1.000357   -0.743744
  H     -1.266405    1.686382    1.160275
  H      3.033104    1.161413    0.788571
  H      3.469409   -1.335555   -0.979176
  H      5.084166    1.489829    1.068803
  H      7.520439    1.767191    1.282934
  H      9.052982   -2.478005    0.892263
  H     11.010034   -3.881521    1.505788
  H     13.304713   -2.945889    1.490276
  H     13.695814   -0.562364    0.881326
  H     13.433846    2.094834    0.119313
  H     12.588053    4.325384   -0.597741
  H     10.172177    4.679567   -1.021268
  H      8.536924    2.832834   -0.717865
  H      8.151569   -1.646973   -1.267667
  H      5.699808   -1.951687   -1.456022
  H     -5.539916    2.263239    1.651304
  H     -8.006417    2.118636    1.583450
  H     -8.966715    3.043541   -0.476130
  H    -10.861269    4.583697   -0.937895
  H    -13.205878    3.791877   -0.815550
  H    -13.713642    1.419426   -0.250901
  H    -13.580559   -1.269405    0.421567
  H    -12.841217   -3.570006    1.026540
  H    -10.434179   -4.086984    1.306573
  H     -8.703471   -2.337364    0.966628
  H     -7.725658   -1.299323   -1.026863
  H     -5.274163   -1.181512   -0.937476

ORBITAL ENERGIES
----------------

  NO   OCC          E(Eh)            E(eV)
   0   2.0000     -89.114105     -2424.9181
   1   2.0000     -14.452447      -393.2711
   2   2.0000     -14.452424      -393.2704
   3   2.0000     -14.450406      -393.2155
   4   2.0000     -14.445864      -393.0919
   5   2.0000     -14.403566      -391.9410
   6   2.0000     -10.305298      -280.4214
   7   2.0000     -10.304378      -280.3964
   8   2.0000     -10.299462      -280.2626
   9   2.0000     -10.297231      -280.2019
  10   2.0000     -10.296273      -280.1758
  11   2.0000     -10.284444      -279.8539
  12   2.0000     -10.279112      -279.7089
  13   2.0000     -10.279056      -279.7073
  14   2.0000     -10.278997      -279.7057
  15   2.0000     -10.278914      -279.7035
  16   2.0000     -10.269318      -279.4423
  17   2.0000     -10.262200      -279.2487
  18   2.0000     -10.260977      -279.2154
  19   2.0000     -10.258131      -279.1379
  20   2.0000     -10.256528      -279.0943
  21   2.0000     -10.256394      -279.0907
  22   2.0000     -10.256312      -279.0884
  23   2.0000     -10.256031      -279.0808
  24   2.0000     -10.255830      -279.0753
  25   2.0000     -10.255426      -279.0643
  26   2.0000     -10.255221      -279.0587
  27   2.0000     -10.255047      -279.0540
  28   2.0000     -10.254988      -279.0524
  29   2.0000     -10.253974      -279.0248
  30   2.0000     -10.248708      -278.8815
  31   2.0000     -10.242618      -278.7158
  32   2.0000     -10.242485      -278.7122
  33   2.0000     -10.242466      -278.7117
  34   2.0000     -10.242351      -278.7085
  35   2.0000     -10.242325      -278.7078
  36   2.0000     -10.242325      -278.7078
  37   2.0000     -10.242217      -278.7049
  38   2.0000     -10.242151      -278.7031
  39   2.0000     -10.241743      -278.6920
  40   2.0000     -10.241603      -278.6882
  41   2.0000     -10.241539      -278.6864
  42   2.0000     -10.241394      -278.6825
  43   2.0000     -10.240892      -278.6688
  44   2.0000     -10.240856      -278.6679
  45   2.0000     -10.240767      -278.6654
  46   2.0000     -10.240676      -278.6630
  47   2.0000     -10.235032      -278.5094
  48   2.0000     -10.235027      -278.5092
  49   2.0000     -10.234906      -278.5059
  50   2.0000     -10.234842      -278.5042
  51   2.0000      -8.111061      -220.7132
  52   2.0000      -6.054244      -164.7444
  53   2.0000      -6.047084      -164.5495
  54   2.0000      -6.045539      -164.5075
  55   2.0000      -1.060448       -28.8563
  56   2.0000      -1.026899       -27.9433
  57   2.0000      -1.026735       -27.9389
  58   2.0000      -0.979041       -26.6411
  59   2.0000      -0.929882       -25.3034
  60   2.0000      -0.904053       -24.6005
  61   2.0000      -0.904031       -24.5999
  62   2.0000      -0.874343       -23.7921
  63   2.0000      -0.873270       -23.7629
  64   2.0000      -0.871647       -23.7187
  65   2.0000      -0.871426       -23.7127
  66   2.0000      -0.851944       -23.1826
  67   2.0000      -0.837025       -22.7766
  68   2.0000      -0.825445       -22.4615
  69   2.0000      -0.815007       -22.1775
  70   2.0000      -0.802569       -21.8390
  71   2.0000      -0.790147       -21.5010
  72   2.0000      -0.785184       -21.3659
  73   2.0000      -0.784959       -21.3598
  74   2.0000      -0.773834       -21.0571
  75   2.0000      -0.770924       -20.9779
  76   2.0000      -0.770759       -20.9734
  77   2.0000      -0.757737       -20.6191
  78   2.0000      -0.742175       -20.1956
  79   2.0000      -0.738526       -20.0963
  80   2.0000      -0.738230       -20.0883
  81   2.0000      -0.723318       -19.6825
  82   2.0000      -0.704021       -19.1574
  83   2.0000      -0.681281       -18.5386
  84   2.0000      -0.674660       -18.3584
  85   2.0000      -0.663891       -18.0654
  86   2.0000      -0.651922       -17.7397
  87   2.0000      -0.650567       -17.7028
  88   2.0000      -0.649174       -17.6649
  89   2.0000      -0.641481       -17.4556
  90   2.0000      -0.626530       -17.0487
  91   2.0000      -0.624420       -16.9913
  92   2.0000      -0.623927       -16.9779
  93   2.0000      -0.609825       -16.5942
  94   2.0000      -0.599844       -16.3226
  95   2.0000      -0.595484       -16.2039
  96   2.0000      -0.593929       -16.1616
  97   2.0000      -0.593220       -16.1423
  98   2.0000      -0.574381       -15.6297
  99   2.0000      -0.565597       -15.3907
 100   2.0000      -0.561343       -15.2749
 101   2.0000      -0.557206       -15.1623
 102   2.0000      -0.541057       -14.7229
 103   2.0000      -0.538481       -14.6528
 104   2.0000      -0.536910       -14.6101
 105   2.0000      -0.527075       -14.3424
 106   2.0000      -0.524388       -14.2693
 107   2.0000      -0.516225       -14.0472
 108   2.0000      -0.512078       -13.9344
 109   2.0000      -0.504918       -13.7395
 110   2.0000      -0.493104       -13.4181
 111   2.0000      -0.491650       -13.3785
 112   2.0000      -0.483761       -13.1638
 113   2.0000      -0.482205       -13.1215
 114   2.0000      -0.479910       -13.0590
 115   2.0000      -0.473684       -12.8896
 116   2.0000      -0.472811       -12.8658
 117   2.0000      -0.471643       -12.8341
 118   2.0000      -0.468631       -12.7521
 119   2.0000      -0.464813       -12.6482
 120   2.0000      -0.457431       -12.4473
 121   2.0000      -0.455321       -12.3899
 122   2.0000      -0.453983       -12.3535
 123   2.0000      -0.453437       -12.3386
 124   2.0000      -0.451632       -12.2895
 125   2.0000      -0.449876       -12.2418
 126   2.0000      -0.444671       -12.1001
 127   2.0000      -0.444418       -12.0932
 128   2.0000      -0.441952       -12.0261
 129   2.0000      -0.438003       -11.9187
 130   2.0000      -0.437253       -11.8983
 131   2.0000      -0.434585       -11.8257
 132   2.0000      -0.431670       -11.7463
 133   2.0000      -0.422081       -11.4854
 134   2.0000      -0.420541       -11.4435
 135   2.0000      -0.410966       -11.1830
 136   2.0000      -0.410428       -11.1683
 137   2.0000      -0.407117       -11.0782
 138   2.0000      -0.404629       -11.0105
 139   2.0000      -0.400745       -10.9048
 140   2.0000      -0.393445       -10.7062
 141   2.0000      -0.384418       -10.4605
 142   2.0000      -0.382143       -10.3986
 143   2.0000      -0.381117       -10.3707
 144   2.0000      -0.380856       -10.3636
 145   2.0000      -0.380616       -10.3571
 146   2.0000      -0.376031       -10.2323
 147   2.0000      -0.375789       -10.2257
 148   2.0000      -0.372683       -10.1412
 149   2.0000      -0.369284       -10.0487
 150   2.0000      -0.359257        -9.7759
 151   2.0000      -0.358594        -9.7578
 152   2.0000      -0.353451        -9.6179
 153   2.0000      -0.353265        -9.6128
 154   2.0000      -0.352527        -9.5927
 155   2.0000      -0.351414        -9.5625
 156   2.0000      -0.347595        -9.4585
 157   2.0000      -0.332477        -9.0472
 158   2.0000      -0.329088        -8.9549
 159   2.0000      -0.326102        -8.8737
 160   2.0000      -0.311299        -8.4709
 161   2.0000      -0.301691        -8.2094
 162   2.0000      -0.300767        -8.1843
 163   2.0000      -0.291081        -7.9207
 164   2.0000      -0.286753        -7.8029
 165   2.0000      -0.286653        -7.8002
 166   2.0000      -0.284889        -7.7522
 167   2.0000      -0.272230        -7.4078
 168   2.0000      -0.272118        -7.4047
 169   2.0000      -0.261870        -7.1258
 170   2.0000      -0.233610        -6.3568
 171   2.0000      -0.233287        -6.3481
 172   2.0000      -0.229660        -6.2494
 173   2.0000      -0.216962        -5.9038
 174   2.0000      -0.204374        -5.5613
 175   0.0000      -0.121513        -3.3065
 176   0.0000      -0.068587        -1.8663
 177   0.0000      -0.050826        -1.3830
 178   0.0000      -0.034918        -0.9502
 179   0.0000      -0.034777        -0.9463

Total SCF time: 0 days 0 hours 1 min 35 sec

-----------------------------------------------------------------------------
         ABSORPTION SPECTRUM VIA TRANSITION ELECTRIC DIPOLE MOMENTS
-----------------------------------------------------------------------------
State   Energy    Wavelength  fosc         T2        TX        TY        TZ
        (cm-1)      (nm)                 (au**2)    (au)      (au)      (au)
-----------------------------------------------------------------------------
   1   15759.7    634.5   1.199555068  25.05801   5.00569  -0.02104  -0.02513
   2   18272.5    547.3   0.012403733   0.22348  -0.33840  -0.26643  -0.19486
   3   21166.8    472.4   0.072188455   1.12276   1.05895  -0.03115  -0.02057
   4   21660.3    461.7   0.000016004   0.00024  -0.00177   0.01424  -0.00612
   5   21905.9    456.5   0.000014162   0.00021  -0.00331   0.01310  -0.00550

Dispersion correction           -0.110040486
FINAL SINGLE POINT ENERGY     -2400.262186943758

DIPOLE MOMENT
-------------
                                X             Y             Z
Electronic contribution:      0.43604      -7.79947      -5.55995
Nuclear contribution   :     -1.78108       8.69064       6.21296
                        -----------------------------------------
Total Dipole Moment    :     -1.34504       0.89117       0.65301
                        -----------------------------------------
Magnitude (a.u.)       :      1.74061
Magnitude (Debye)      :      4.42429

Rotational constants in cm-1:     0.006392     0.000343     0.000331
Rotational constants in MHz :   191.631075    10.282243     9.925584

                             ****ORCA TERMINATED NORMALLY****
TOTAL RUN TIME: 0 days 0 hours 29 minutes 29 seconds 276 msec
