                         Program Version 5.0.3 -  RELEASE  -
|  1> ! PBE0 def2-SVP D3BJ def2/J RIJCOSX tightSCF noautostart miniprint nopop defgrid3 Opt
|  2> %maxcore    4000
|  3> %pal    nprocs  40  end
|  4> %geom	Convergence	loose
|  5> 	MaxIter	5
|  6> end
|  7> %tddft  PrintLevel  3
|  8> 	IRootMult	Triplet
|  9> 	NRoots	5
| 10> 	IRoot	2
| 11> 	TDA	True
| 12>         MaxDim  10
| 13> end
| 14> * xyzfile 0 1 T1_XTB_OPT_XYZ.xyz
| 15>
| 16>
| 17>                          ****END OF INPUT****

ORBITAL ENERGIES
----------------

  NO   OCC          E(Eh)            E(eV)
   0   2.0000     -89.111696     -2424.8525
   1   2.0000     -14.453869      -393.3098
   2   2.0000     -14.452421      -393.2704
   3   2.0000     -14.438856      -392.9012
   4   2.0000     -14.435021      -392.7969
   5   2.0000     -14.397136      -391.7660
   6   2.0000     -10.298778      -280.2440
   7   2.0000     -10.298063      -280.2245
   8   2.0000     -10.296381      -280.1788
   9   2.0000     -10.293867      -280.1104
  10   2.0000     -10.293031      -280.0876
  11   2.0000     -10.279045      -279.7070
  12   2.0000     -10.277316      -279.6600
  13   2.0000     -10.277265      -279.6586
  14   2.0000     -10.276311      -279.6326
  15   2.0000     -10.276248      -279.6309
  16   2.0000     -10.263833      -279.2931
  17   2.0000     -10.257613      -279.1238
  18   2.0000     -10.257013      -279.1075
  19   2.0000     -10.253715      -279.0178
  20   2.0000     -10.253628      -279.0154
  21   2.0000     -10.253334      -279.0074
  22   2.0000     -10.252846      -278.9941
  23   2.0000     -10.252358      -278.9808
  24   2.0000     -10.252055      -278.9726
  25   2.0000     -10.252016      -278.9715
  26   2.0000     -10.251473      -278.9568
  27   2.0000     -10.251067      -278.9457
  28   2.0000     -10.250328      -278.9256
  29   2.0000     -10.249886      -278.9136
  30   2.0000     -10.244841      -278.7763
  31   2.0000     -10.239580      -278.6331
  32   2.0000     -10.239541      -278.6321
  33   2.0000     -10.239457      -278.6298
  34   2.0000     -10.239387      -278.6279
  35   2.0000     -10.239029      -278.6181
  36   2.0000     -10.238934      -278.6156
  37   2.0000     -10.238682      -278.6087
  38   2.0000     -10.238635      -278.6074
  39   2.0000     -10.238540      -278.6048
  40   2.0000     -10.238522      -278.6043
  41   2.0000     -10.238163      -278.5946
  42   2.0000     -10.238038      -278.5912
  43   2.0000     -10.237410      -278.5741
  44   2.0000     -10.237296      -278.5710
  45   2.0000     -10.236578      -278.5515
  46   2.0000     -10.236546      -278.5506
  47   2.0000     -10.231623      -278.4166
  48   2.0000     -10.231521      -278.4138
  49   2.0000     -10.230733      -278.3924
  50   2.0000     -10.230729      -278.3923
  51   2.0000      -8.109063      -220.6588
  52   2.0000      -6.052361      -164.6931
  53   2.0000      -6.044960      -164.4917
  54   2.0000      -6.043581      -164.4542
  55   2.0000      -1.065257       -28.9871
  56   2.0000      -1.033938       -28.1349
  57   2.0000      -1.032521       -28.0963
  58   2.0000      -0.978251       -26.6196
  59   2.0000      -0.926750       -25.2181
  60   2.0000      -0.908269       -24.7152
  61   2.0000      -0.907459       -24.6932
  62   2.0000      -0.878282       -23.8993
  63   2.0000      -0.878028       -23.8924
  64   2.0000      -0.876576       -23.8528
  65   2.0000      -0.875717       -23.8295
  66   2.0000      -0.852909       -23.2088
  67   2.0000      -0.840864       -22.8811
  68   2.0000      -0.827958       -22.5299
  69   2.0000      -0.818568       -22.2744
  70   2.0000      -0.805284       -21.9129
  71   2.0000      -0.792569       -21.5669
  72   2.0000      -0.789320       -21.4785
  73   2.0000      -0.788287       -21.4504
  74   2.0000      -0.777282       -21.1509
  75   2.0000      -0.774849       -21.0847
  76   2.0000      -0.773929       -21.0597
  77   2.0000      -0.759963       -20.6796
  78   2.0000      -0.746853       -20.3229
  79   2.0000      -0.740896       -20.1608
  80   2.0000      -0.740040       -20.1375
  81   2.0000      -0.722903       -19.6712
  82   2.0000      -0.706682       -19.2298
  83   2.0000      -0.681545       -18.5458
  84   2.0000      -0.677796       -18.4438
  85   2.0000      -0.663422       -18.0526
  86   2.0000      -0.655411       -17.8346
  87   2.0000      -0.653199       -17.7744
  88   2.0000      -0.650436       -17.6993
  89   2.0000      -0.644777       -17.5453
  90   2.0000      -0.627428       -17.0732
  91   2.0000      -0.626387       -17.0448
  92   2.0000      -0.625366       -17.0171
  93   2.0000      -0.612957       -16.6794
  94   2.0000      -0.602144       -16.3852
  95   2.0000      -0.598551       -16.2874
  96   2.0000      -0.596397       -16.2288
  97   2.0000      -0.595375       -16.2010
  98   2.0000      -0.574071       -15.6213
  99   2.0000      -0.568511       -15.4700
 100   2.0000      -0.565237       -15.3809
 101   2.0000      -0.559753       -15.2316
 102   2.0000      -0.544449       -14.8152
 103   2.0000      -0.541154       -14.7255
 104   2.0000      -0.540346       -14.7036
 105   2.0000      -0.530257       -14.4290
 106   2.0000      -0.526808       -14.3352
 107   2.0000      -0.517938       -14.0938
 108   2.0000      -0.513475       -13.9724
 109   2.0000      -0.506079       -13.7711
 110   2.0000      -0.493886       -13.4393
 111   2.0000      -0.491994       -13.3878
 112   2.0000      -0.486749       -13.2451
 113   2.0000      -0.484421       -13.1818
 114   2.0000      -0.479932       -13.0596
 115   2.0000      -0.476672       -12.9709
 116   2.0000      -0.475418       -12.9368
 117   2.0000      -0.474537       -12.9128
 118   2.0000      -0.471006       -12.8167
 119   2.0000      -0.467074       -12.7097
 120   2.0000      -0.460260       -12.5243
 121   2.0000      -0.457980       -12.4623
 122   2.0000      -0.457111       -12.4386
 123   2.0000      -0.456233       -12.4147
 124   2.0000      -0.454485       -12.3672
 125   2.0000      -0.451705       -12.2915
 126   2.0000      -0.447056       -12.1650
 127   2.0000      -0.446204       -12.1418
 128   2.0000      -0.444262       -12.0890
 129   2.0000      -0.440828       -11.9955
 130   2.0000      -0.439624       -11.9628
 131   2.0000      -0.435385       -11.8474
 132   2.0000      -0.434076       -11.8118
 133   2.0000      -0.422513       -11.4972
 134   2.0000      -0.422369       -11.4933
 135   2.0000      -0.412843       -11.2340
 136   2.0000      -0.410532       -11.1711
 137   2.0000      -0.408969       -11.1286
 138   2.0000      -0.404285       -11.0012
 139   2.0000      -0.401988       -10.9386
 140   2.0000      -0.395654       -10.7663
 141   2.0000      -0.384713       -10.4686
 142   2.0000      -0.383536       -10.4365
 143   2.0000      -0.382772       -10.4158
 144   2.0000      -0.381911       -10.3923
 145   2.0000      -0.381459       -10.3800
 146   2.0000      -0.378641       -10.3033
 147   2.0000      -0.377720       -10.2783
 148   2.0000      -0.372933       -10.1480
 149   2.0000      -0.369085       -10.0433
 150   2.0000      -0.361119        -9.8266
 151   2.0000      -0.359823        -9.7913
 152   2.0000      -0.354519        -9.6469
 153   2.0000      -0.353857        -9.6289
 154   2.0000      -0.353623        -9.6226
 155   2.0000      -0.352187        -9.5835
 156   2.0000      -0.342855        -9.3296
 157   2.0000      -0.331768        -9.0279
 158   2.0000      -0.326855        -8.8942
 159   2.0000      -0.318213        -8.6590
 160   2.0000      -0.310635        -8.4528
 161   2.0000      -0.303494        -8.2585
 162   2.0000      -0.302304        -8.2261
 163   2.0000      -0.290514        -7.9053
 164   2.0000      -0.288719        -7.8564
 165   2.0000      -0.287650        -7.8274
 166   2.0000      -0.277722        -7.5572
 167   2.0000      -0.274603        -7.4723
 168   2.0000      -0.273769        -7.4496
 169   2.0000      -0.261848        -7.1252
 170   2.0000      -0.233833        -6.3629
 171   2.0000      -0.232993        -6.3401
 172   2.0000      -0.228629        -6.2213
 173   2.0000      -0.217704        -5.9240
 174   2.0000      -0.198131        -5.3914
 175   0.0000      -0.120258        -3.2724
 176   0.0000      -0.064557        -1.7567
 177   0.0000      -0.049946        -1.3591
 178   0.0000      -0.034271        -0.9325
 179   0.0000      -0.033465        -0.9106

Total SCF time: 0 days 0 hours 2 min 32 sec

Dispersion correction           -0.110567918
FINAL SINGLE POINT ENERGY     -2400.247541196876
Dispersion correction                    ... done
Dispersion correction           -0.109957202
FINAL SINGLE POINT ENERGY     -2400.258516575719
Dispersion correction                    ... done
Dispersion correction           -0.109868184
FINAL SINGLE POINT ENERGY     -2400.259524865956
Dispersion correction                    ... done
Dispersion correction           -0.109870536
FINAL SINGLE POINT ENERGY     -2400.259823937410
Dispersion correction                    ... done

CARTESIAN COORDINATES (ANGSTROEM)
---------------------------------
  C     -3.792584    0.701402    0.552202
  C     -2.881210   -0.108807   -0.058872
  C     -1.447653   -0.032565    0.004753
  C     -0.710725    0.924375    0.726936
  N      0.612222    1.002857    0.785375
  C      1.386711    0.124992    0.122629
  C      2.811920    0.303207    0.249780
  C      3.791389   -0.449710   -0.329409
  C      5.211383   -0.234241   -0.179540
  C      5.780154    0.795998    0.610384
  C      7.149126    0.955441    0.714908
  C      8.018029    0.088455    0.032023
  N      9.413437    0.249640    0.134192
  C     10.317185   -0.746879    0.473691
  C     10.069696   -2.073616    0.839923
  C     11.168004   -2.867295    1.158151
  C     12.472698   -2.354008    1.127069
  C     12.710366   -1.020613    0.785432
  C     11.628606   -0.207798    0.458164
  C     11.495547    1.189792    0.092053
  C     12.404439    2.225064   -0.108183
  C     11.924679    3.476795   -0.500635
  C     10.553994    3.689663   -0.706887
  C      9.625992    2.669603   -0.517605
  C     10.110668    1.426155   -0.100286
  C      7.482079   -0.941076   -0.757222
  C      6.111289   -1.092882   -0.855652
  C      0.779959   -0.913082   -0.656790
  N      1.385121   -1.861294   -1.373299
  S      0.197854   -2.776047   -2.053399
  N     -1.120355   -1.984990   -1.465603
  C     -0.664808   -0.988131   -0.713044
  C     -5.227966    0.572894    0.443632
  C     -6.066043    1.470849    1.143643
  C     -7.446668    1.388955    1.076784
  C     -8.054141    0.398589    0.292337
  N     -9.457241    0.308463    0.215708
  C    -10.318167    1.347545   -0.111611
  C    -10.017677    2.663552   -0.474020
  C    -11.082106    3.505785   -0.781298
  C    -12.409300    3.052368   -0.740821
  C    -12.701052    1.732425   -0.400245
  C    -11.652249    0.868984   -0.085146
  C    -11.581436   -0.532477    0.274795
  C    -12.538670   -1.526358    0.476615
  C    -12.118777   -2.800620    0.855160
  C    -10.756898   -3.079855    1.045034
  C     -9.782437   -2.105067    0.852974
  C    -10.208112   -0.835494    0.452202
  C     -7.245275   -0.503173   -0.416461
  C     -5.867461   -0.418665   -0.339566
  H     -3.439348    1.522755    1.182460
  H     -3.241664   -0.930921   -0.685168
  H     -1.253271    1.685298    1.299324
  H      3.064714    1.152547    0.892357
  H      3.484369   -1.284841   -0.962252
  H      5.126527    1.472510    1.163267
  H      7.563874    1.737576    1.354398
  H      9.054143   -2.469128    0.885675
  H     11.006275   -3.908623    1.445138
  H     13.311916   -3.003901    1.384030
  H     13.727067   -0.621149    0.781307
  H     13.475078    2.059522    0.031830
  H     12.625943    4.298684   -0.659967
  H     10.204931    4.672702   -1.030381
  H      8.562734    2.831729   -0.699416
  H      8.152554   -1.597530   -1.315841
  H      5.700821   -1.886664   -1.484126
  H     -5.605183    2.241188    1.767067
  H     -8.069212    2.077205    1.652137
  H     -8.986470    3.015749   -0.524940
  H    -10.875946    4.539983   -1.066322
  H    -13.220624    3.740203   -0.988445
  H    -13.734162    1.377467   -0.386252
  H    -13.600910   -1.307370    0.345465
  H    -12.857020   -3.589434    1.014707
  H    -10.451813   -4.081591    1.356068
  H     -8.726411   -2.322879    1.018507
  H     -7.713372   -1.258702   -1.050894
  H     -5.265734   -1.126096   -0.912346

-----------------------------------------------------------------------------
         ABSORPTION SPECTRUM VIA TRANSITION ELECTRIC DIPOLE MOMENTS
-----------------------------------------------------------------------------
State   Energy    Wavelength  fosc         T2        TX        TY        TZ
        (cm-1)      (nm)                 (au**2)    (au)      (au)      (au)
-----------------------------------------------------------------------------
   1   16261.4    615.0   1.242399841  25.15235  -5.01516   0.00926   0.02001
   2   18397.6    543.5   0.007419769   0.13277   0.22918   0.23365   0.16018
   3   21419.8    466.9   0.178116299   2.73757   1.65333  -0.05005  -0.03966
   4   21917.1    456.3   0.000012512   0.00019  -0.00499   0.01189  -0.00464
   5   21928.8    456.0   0.000014063   0.00021  -0.00684   0.01200  -0.00451
   6    9682.9   1032.7   spin forbidden (mult=3)
   7   16598.8    602.5   spin forbidden (mult=3)
   8   18568.9    538.5   spin forbidden (mult=3)
   9   20747.9    482.0   spin forbidden (mult=3)
  10   21683.4    461.2   spin forbidden (mult=3)

Dispersion correction           -0.109885442
FINAL SINGLE POINT ENERGY     -2400.259876261186
Dispersion correction                    ... done

DIPOLE MOMENT
-------------
                                X             Y             Z
Electronic contribution:      4.20458      -7.03876      -6.10114
Nuclear contribution   :     -1.73935       8.28749       6.00024
                        -----------------------------------------
Total Dipole Moment    :      2.46523       1.24873      -0.10090
                        -----------------------------------------
Magnitude (a.u.)       :      2.76530
Magnitude (Debye)      :      7.02883

Rotational constants in cm-1:     0.006486     0.000342     0.000330
Rotational constants in MHz :   194.441960    10.238192     9.897186

                             ****ORCA TERMINATED NORMALLY****
TOTAL RUN TIME: 0 days 0 hours 29 minutes 40 seconds 521 msec
