                         Program Version 5.0.3 -  RELEASE  -
|  1> ! PBE0 def2-SVP D3BJ def2/J RIJCOSX tightSCF noautostart miniprint nopop defgrid3 Opt
|  2> %maxcore    4000
|  3> %pal    nprocs  40  end
|  4> %geom	Convergence	loose
|  5> 	MaxIter	5
|  6> end
|  7> %tddft  PrintLevel  3
|  8> 	IRootMult	Triplet
|  9> 	NRoots	5
| 10> 	IRoot	3
| 11> 	TDA	True
| 12>         MaxDim  10
| 13> end
| 14> * xyzfile 0 1 T1_XTB_OPT_XYZ.xyz
| 15>
| 16>
| 17>                          ****END OF INPUT****

ORBITAL ENERGIES
----------------

  NO   OCC          E(Eh)            E(eV)
   0   2.0000     -89.111696     -2424.8525
   1   2.0000     -14.453869      -393.3098
   2   2.0000     -14.452421      -393.2704
   3   2.0000     -14.438856      -392.9012
   4   2.0000     -14.435021      -392.7969
   5   2.0000     -14.397136      -391.7660
   6   2.0000     -10.298778      -280.2440
   7   2.0000     -10.298063      -280.2245
   8   2.0000     -10.296381      -280.1788
   9   2.0000     -10.293867      -280.1104
  10   2.0000     -10.293031      -280.0876
  11   2.0000     -10.279045      -279.7070
  12   2.0000     -10.277316      -279.6600
  13   2.0000     -10.277265      -279.6586
  14   2.0000     -10.276311      -279.6326
  15   2.0000     -10.276248      -279.6309
  16   2.0000     -10.263833      -279.2931
  17   2.0000     -10.257613      -279.1238
  18   2.0000     -10.257013      -279.1075
  19   2.0000     -10.253715      -279.0178
  20   2.0000     -10.253628      -279.0154
  21   2.0000     -10.253334      -279.0074
  22   2.0000     -10.252846      -278.9941
  23   2.0000     -10.252358      -278.9808
  24   2.0000     -10.252055      -278.9726
  25   2.0000     -10.252016      -278.9715
  26   2.0000     -10.251473      -278.9568
  27   2.0000     -10.251067      -278.9457
  28   2.0000     -10.250328      -278.9256
  29   2.0000     -10.249886      -278.9136
  30   2.0000     -10.244841      -278.7763
  31   2.0000     -10.239580      -278.6331
  32   2.0000     -10.239541      -278.6321
  33   2.0000     -10.239457      -278.6298
  34   2.0000     -10.239387      -278.6279
  35   2.0000     -10.239029      -278.6181
  36   2.0000     -10.238934      -278.6156
  37   2.0000     -10.238682      -278.6087
  38   2.0000     -10.238635      -278.6074
  39   2.0000     -10.238540      -278.6048
  40   2.0000     -10.238522      -278.6043
  41   2.0000     -10.238163      -278.5946
  42   2.0000     -10.238038      -278.5912
  43   2.0000     -10.237410      -278.5741
  44   2.0000     -10.237296      -278.5710
  45   2.0000     -10.236578      -278.5515
  46   2.0000     -10.236546      -278.5506
  47   2.0000     -10.231623      -278.4166
  48   2.0000     -10.231521      -278.4138
  49   2.0000     -10.230733      -278.3924
  50   2.0000     -10.230729      -278.3923
  51   2.0000      -8.109063      -220.6588
  52   2.0000      -6.052361      -164.6931
  53   2.0000      -6.044960      -164.4917
  54   2.0000      -6.043581      -164.4542
  55   2.0000      -1.065257       -28.9871
  56   2.0000      -1.033938       -28.1349
  57   2.0000      -1.032521       -28.0963
  58   2.0000      -0.978251       -26.6196
  59   2.0000      -0.926750       -25.2181
  60   2.0000      -0.908269       -24.7152
  61   2.0000      -0.907459       -24.6932
  62   2.0000      -0.878282       -23.8993
  63   2.0000      -0.878028       -23.8924
  64   2.0000      -0.876576       -23.8528
  65   2.0000      -0.875717       -23.8295
  66   2.0000      -0.852909       -23.2088
  67   2.0000      -0.840864       -22.8811
  68   2.0000      -0.827958       -22.5299
  69   2.0000      -0.818568       -22.2744
  70   2.0000      -0.805284       -21.9129
  71   2.0000      -0.792569       -21.5669
  72   2.0000      -0.789320       -21.4785
  73   2.0000      -0.788287       -21.4504
  74   2.0000      -0.777282       -21.1509
  75   2.0000      -0.774849       -21.0847
  76   2.0000      -0.773929       -21.0597
  77   2.0000      -0.759963       -20.6796
  78   2.0000      -0.746853       -20.3229
  79   2.0000      -0.740896       -20.1608
  80   2.0000      -0.740040       -20.1375
  81   2.0000      -0.722903       -19.6712
  82   2.0000      -0.706682       -19.2298
  83   2.0000      -0.681545       -18.5458
  84   2.0000      -0.677796       -18.4438
  85   2.0000      -0.663422       -18.0526
  86   2.0000      -0.655411       -17.8346
  87   2.0000      -0.653199       -17.7744
  88   2.0000      -0.650436       -17.6993
  89   2.0000      -0.644777       -17.5453
  90   2.0000      -0.627428       -17.0732
  91   2.0000      -0.626387       -17.0448
  92   2.0000      -0.625366       -17.0171
  93   2.0000      -0.612957       -16.6794
  94   2.0000      -0.602144       -16.3852
  95   2.0000      -0.598551       -16.2874
  96   2.0000      -0.596397       -16.2288
  97   2.0000      -0.595375       -16.2010
  98   2.0000      -0.574071       -15.6213
  99   2.0000      -0.568511       -15.4700
 100   2.0000      -0.565237       -15.3809
 101   2.0000      -0.559753       -15.2316
 102   2.0000      -0.544449       -14.8152
 103   2.0000      -0.541154       -14.7255
 104   2.0000      -0.540346       -14.7036
 105   2.0000      -0.530257       -14.4290
 106   2.0000      -0.526808       -14.3352
 107   2.0000      -0.517938       -14.0938
 108   2.0000      -0.513475       -13.9724
 109   2.0000      -0.506079       -13.7711
 110   2.0000      -0.493886       -13.4393
 111   2.0000      -0.491994       -13.3878
 112   2.0000      -0.486749       -13.2451
 113   2.0000      -0.484421       -13.1818
 114   2.0000      -0.479932       -13.0596
 115   2.0000      -0.476672       -12.9709
 116   2.0000      -0.475418       -12.9368
 117   2.0000      -0.474537       -12.9128
 118   2.0000      -0.471006       -12.8167
 119   2.0000      -0.467074       -12.7097
 120   2.0000      -0.460260       -12.5243
 121   2.0000      -0.457980       -12.4623
 122   2.0000      -0.457111       -12.4386
 123   2.0000      -0.456233       -12.4147
 124   2.0000      -0.454485       -12.3672
 125   2.0000      -0.451705       -12.2915
 126   2.0000      -0.447056       -12.1650
 127   2.0000      -0.446204       -12.1418
 128   2.0000      -0.444262       -12.0890
 129   2.0000      -0.440828       -11.9955
 130   2.0000      -0.439624       -11.9628
 131   2.0000      -0.435385       -11.8474
 132   2.0000      -0.434076       -11.8118
 133   2.0000      -0.422513       -11.4972
 134   2.0000      -0.422369       -11.4933
 135   2.0000      -0.412843       -11.2340
 136   2.0000      -0.410532       -11.1711
 137   2.0000      -0.408969       -11.1286
 138   2.0000      -0.404285       -11.0012
 139   2.0000      -0.401988       -10.9386
 140   2.0000      -0.395654       -10.7663
 141   2.0000      -0.384713       -10.4686
 142   2.0000      -0.383536       -10.4365
 143   2.0000      -0.382772       -10.4158
 144   2.0000      -0.381911       -10.3923
 145   2.0000      -0.381459       -10.3800
 146   2.0000      -0.378641       -10.3033
 147   2.0000      -0.377720       -10.2783
 148   2.0000      -0.372933       -10.1480
 149   2.0000      -0.369085       -10.0433
 150   2.0000      -0.361119        -9.8266
 151   2.0000      -0.359823        -9.7913
 152   2.0000      -0.354519        -9.6469
 153   2.0000      -0.353857        -9.6289
 154   2.0000      -0.353623        -9.6226
 155   2.0000      -0.352187        -9.5835
 156   2.0000      -0.342855        -9.3296
 157   2.0000      -0.331768        -9.0279
 158   2.0000      -0.326855        -8.8942
 159   2.0000      -0.318213        -8.6590
 160   2.0000      -0.310635        -8.4528
 161   2.0000      -0.303494        -8.2585
 162   2.0000      -0.302304        -8.2261
 163   2.0000      -0.290514        -7.9053
 164   2.0000      -0.288719        -7.8564
 165   2.0000      -0.287650        -7.8274
 166   2.0000      -0.277722        -7.5572
 167   2.0000      -0.274603        -7.4723
 168   2.0000      -0.273769        -7.4496
 169   2.0000      -0.261848        -7.1252
 170   2.0000      -0.233833        -6.3629
 171   2.0000      -0.232993        -6.3401
 172   2.0000      -0.228629        -6.2213
 173   2.0000      -0.217704        -5.9240
 174   2.0000      -0.198131        -5.3914
 175   0.0000      -0.120258        -3.2724
 176   0.0000      -0.064557        -1.7567
 177   0.0000      -0.049946        -1.3591
 178   0.0000      -0.034271        -0.9325
 179   0.0000      -0.033465        -0.9106

Total SCF time: 0 days 0 hours 2 min 32 sec

Dispersion correction           -0.110567918
FINAL SINGLE POINT ENERGY     -2400.237274038941
Dispersion correction                    ... done
Dispersion correction           -0.109856682
FINAL SINGLE POINT ENERGY     -2400.249944150477
Dispersion correction                    ... done
Dispersion correction           -0.109659631
FINAL SINGLE POINT ENERGY     -2400.252629713168
Dispersion correction                    ... done
Dispersion correction           -0.109595485
FINAL SINGLE POINT ENERGY     -2400.254071019463
Dispersion correction                    ... done

CARTESIAN COORDINATES (ANGSTROEM)
---------------------------------
  C     -3.794492    0.643543    0.683969
  C     -2.884139   -0.041919   -0.048848
  C     -1.447996    0.018964    0.021130
  C     -0.708084    0.848746    0.890814
  N      0.608284    0.916699    0.958843
  C      1.380085    0.152250    0.153945
  C      2.804900    0.306428    0.300367
  C      3.774935   -0.339412   -0.393711
  C      5.211241   -0.155802   -0.222156
  C      5.786569    0.718398    0.721436
  C      7.163321    0.847399    0.845288
  C      8.011102    0.113213    0.012268
  N      9.424962    0.249635    0.129345
  C     10.291193   -0.741751    0.539094
  C      9.998821   -2.047938    0.948030
  C     11.068603   -2.855062    1.322321
  C     12.388151   -2.377756    1.294996
  C     12.671028   -1.068312    0.893704
  C     11.619673   -0.239181    0.513100
  C     11.525100    1.137064    0.062632
  C     12.451268    2.148315   -0.176409
  C     11.995407    3.387129   -0.638204
  C     10.629198    3.614505   -0.865295
  C      9.681948    2.621622   -0.635311
  C     10.145305    1.387881   -0.164278
  C      7.471726   -0.754732   -0.936563
  C      6.092400   -0.888323   -1.039806
  C      0.769559   -0.745340   -0.780311
  N      1.376317   -1.565115   -1.641523
  S      0.180625   -2.361693   -2.463434
  N     -1.140603   -1.669366   -1.746506
  C     -0.674099   -0.808811   -0.844598
  C     -5.242770    0.526590    0.543567
  C     -6.087978    1.266359    1.391598
  C     -7.473430    1.183812    1.304549
  C     -8.053454    0.360394    0.341875
  N     -9.475771    0.272455    0.236416
  C    -10.307030    1.284844   -0.185925
  C     -9.967127    2.576125   -0.608481
  C    -11.008146    3.414301   -0.996332
  C    -12.341548    2.979802   -0.968100
  C    -12.672034    1.682257   -0.552667
  C    -11.651977    0.824993   -0.159495
  C    -11.600278   -0.551836    0.304059
  C    -12.552248   -1.534369    0.545277
  C    -12.127944   -2.785207    1.015485
  C    -10.770112   -3.050136    1.247352
  C     -9.795973   -2.083945    1.014976
  C    -10.227769   -0.840151    0.536942
  C     -7.244294   -0.380188   -0.521898
  C     -5.863237   -0.301493   -0.414424
  H     -3.454696    1.345160    1.451329
  H     -3.239418   -0.748587   -0.806370
  H     -1.254559    1.504788    1.578840
  H      3.060514    1.041981    1.070243
  H      3.465637   -1.061342   -1.152534
  H      5.140872    1.304334    1.378027
  H      7.589594    1.516151    1.596545
  H      8.970635   -2.412817    0.971411
  H     10.874152   -3.880026    1.645948
  H     13.204827   -3.038357    1.593897
  H     13.700823   -0.703670    0.880868
  H     13.517438    1.978067   -0.009363
  H     12.712413    4.188657   -0.828320
  H     10.300127    4.588911   -1.233163
  H      8.619109    2.791388   -0.815385
  H      8.134866   -1.318662   -1.596393
  H      5.673193   -1.574085   -1.780049
  H     -5.639827    1.919474    2.144564
  H     -8.106464    1.753373    1.988769
  H     -8.926542    2.903798   -0.632315
  H    -10.779649    4.428204   -1.331618
  H    -13.135170    3.663023   -1.278002
  H    -13.713908    1.354054   -0.541769
  H    -13.613384   -1.339229    0.374243
  H    -12.867144   -3.566046    1.206646
  H    -10.469190   -4.031812    1.619313
  H     -8.737949   -2.280187    1.196213
  H     -7.701250   -1.014232   -1.285224
  H     -5.250898   -0.892802   -1.097119

-----------------------------------------------------------------------------
         ABSORPTION SPECTRUM VIA TRANSITION ELECTRIC DIPOLE MOMENTS
-----------------------------------------------------------------------------
State   Energy    Wavelength  fosc         T2        TX        TY        TZ
        (cm-1)      (nm)                 (au**2)    (au)      (au)      (au)
-----------------------------------------------------------------------------
   1   16160.1    618.8   0.592267007  12.06561  -3.47351  -0.00137   0.01846
   2   16940.9    590.3   0.012250675   0.23807  -0.46206  -0.11613  -0.10527
   3   19770.3    505.8   0.625945392  10.42314  -3.22732   0.05225   0.06916
   4   20348.9    491.4   0.000050527   0.00082  -0.02795   0.00555   0.00231
   5   20477.0    488.4   0.000025973   0.00042   0.02016  -0.00250  -0.00217
   6    9903.5   1009.7   spin forbidden (mult=3)
   7   16326.9    612.5   spin forbidden (mult=3)
   8   16960.9    589.6   spin forbidden (mult=3)
   9   20318.2    492.2   spin forbidden (mult=3)
  10   20456.8    488.8   spin forbidden (mult=3)

Dispersion correction           -0.109561493
FINAL SINGLE POINT ENERGY     -2400.254786988378
Dispersion correction                    ... done

DIPOLE MOMENT
-------------
                                X             Y             Z
Electronic contribution:     -1.28415       4.25019     -15.81673
Nuclear contribution   :     -1.63827       6.24373       7.78456
                        -----------------------------------------
Total Dipole Moment    :     -2.92242      10.49392      -8.03218
                        -----------------------------------------
Magnitude (a.u.)       :     13.53436
Magnitude (Debye)      :     34.40160

Rotational constants in cm-1:     0.006513     0.000340     0.000333
Rotational constants in MHz :   195.249553    10.204334     9.976654

                             ****ORCA TERMINATED NORMALLY****
TOTAL RUN TIME: 0 days 0 hours 30 minutes 26 seconds 634 msec
