                         Program Version 5.0.3 -  RELEASE  -
|  1> ! PBE0 def2-SVP D3BJ def2/J RIJCOSX tightSCF noautostart miniprint nopop defgrid3 Opt
|  2> %maxcore    4000
|  3> %pal    nprocs  40  end
|  4> %geom	Convergence	loose
|  5> 	MaxIter	5
|  6> end
|  7> %tddft  PrintLevel  3
|  8> 	IRootMult	Triplet
|  9> 	NRoots	5
| 10> 	IRoot	4
| 11> 	TDA	True
| 12>         MaxDim  10
| 13> end
| 14> * xyzfile 0 1 T1_XTB_OPT_XYZ.xyz
| 15>
| 16>
| 17>                          ****END OF INPUT****
Dispersion correction           -0.110567918
FINAL SINGLE POINT ENERGY     -2400.231021386447
Dispersion correction                    ... done
Dispersion correction           -0.110035034
FINAL SINGLE POINT ENERGY     -2400.242991348596
Dispersion correction                    ... done
Dispersion correction           -0.109898502
FINAL SINGLE POINT ENERGY     -2400.244490161027
Dispersion correction                    ... done
Dispersion correction           -0.109897748
FINAL SINGLE POINT ENERGY     -2400.244830688842
Dispersion correction                    ... done
Dispersion correction           -0.109909532
FINAL SINGLE POINT ENERGY     -2400.244882572091
Dispersion correction                    ... done
                    ***********************HURRAY********************

CARTESIAN COORDINATES (ANGSTROEM)
---------------------------------
  C     -3.804563    0.677417    0.566572
  C     -2.878809   -0.156183   -0.074004
  C     -1.458286   -0.056807    0.007650
  C     -0.737731    0.901470    0.745463
  N      0.588377    0.998936    0.816908
  C      1.372564    0.137276    0.151352
  C      2.787883    0.344288    0.297903
  C      3.767386   -0.398172   -0.283727
  C      5.195694   -0.194694   -0.146125
  C      5.770032    0.823143    0.641643
  C      7.144102    0.965879    0.737209
  C      7.997547    0.101295    0.035228
  N      9.391533    0.251184    0.127170
  C     10.297853   -0.758012    0.440305
  C     10.060721   -2.092148    0.778399
  C     11.161615   -2.888786    1.076619
  C     12.467665   -2.375878    1.048365
  C     12.696746   -1.042140    0.729697
  C     11.607999   -0.220469    0.425569
  C     11.480044    1.178672    0.084358
  C     12.401254    2.212829   -0.102136
  C     11.937901    3.472276   -0.465553
  C     10.566216    3.700988   -0.654650
  C      9.628604    2.688842   -0.475633
  C     10.097554    1.430704   -0.091523
  C      7.445767   -0.912585   -0.756262
  C      6.068873   -1.057728   -0.835591
  C      0.771446   -0.903061   -0.643465
  N      1.405343   -1.845198   -1.365932
  S      0.219471   -2.755582   -2.063136
  N     -1.115606   -1.987499   -1.473877
  C     -0.647011   -0.988213   -0.707570
  C     -5.214961    0.563523    0.462534
  C     -6.059774    1.464795    1.172269
  C     -7.433879    1.382328    1.099078
  C     -8.039268    0.392974    0.299054
  N     -9.443004    0.305884    0.217590
  C    -10.296916    1.338087   -0.144886
  C     -9.987784    2.644697   -0.532849
  C    -11.046088    3.482554   -0.870705
  C    -12.374565    3.033805   -0.832805
  C    -12.675029    1.723615   -0.462829
  C    -11.632888    0.863818   -0.117804
  C    -11.569268   -0.527511    0.280352
  C    -12.528921   -1.515865    0.496090
  C    -12.113507   -2.781572    0.907528
  C    -10.754110   -3.059256    1.114086
  C     -9.776690   -2.090752    0.907634
  C    -10.197939   -0.829255    0.477719
  C     -7.232725   -0.506675   -0.417006
  C     -5.857049   -0.430675   -0.336857
  H     -3.434379    1.486461    1.202673
  H     -3.233935   -0.972346   -0.706041
  H     -1.289635    1.651056    1.323417
  H      3.025408    1.192707    0.945422
  H      3.454997   -1.230390   -0.920622
  H      5.126855    1.504178    1.201976
  H      7.574919    1.740850    1.373754
  H      9.048697   -2.497427    0.817208
  H     11.001536   -3.936236    1.342491
  H     13.308649   -3.030473    1.286380
  H     13.711785   -0.638367    0.720916
  H     13.470025    2.029939    0.030887
  H     12.645795    4.290408   -0.613672
  H     10.223520    4.694166   -0.953986
  H      8.566163    2.873501   -0.640219
  H      8.106144   -1.572730   -1.321288
  H      5.644388   -1.848222   -1.459342
  H     -5.599297    2.230640    1.801407
  H     -8.061933    2.067493    1.671667
  H     -8.954752    2.992565   -0.577634
  H    -10.834467    4.509473   -1.176796
  H    -13.181170    3.717974   -1.104333
  H    -13.709980    1.374505   -0.448522
  H    -13.589699   -1.300608    0.349048
  H    -12.854385   -3.565407    1.078224
  H    -10.453739   -4.054800    1.448300
  H     -8.721621   -2.306688    1.081855
  H     -7.705223   -1.257509   -1.053597
  H     -5.255144   -1.135883   -0.910654

ORBITAL ENERGIES
----------------

  NO   OCC          E(Eh)            E(eV)
   0   2.0000     -89.114200     -2424.9207
   1   2.0000     -14.452148      -393.2629
   2   2.0000     -14.451245      -393.2384
   3   2.0000     -14.449971      -393.2037
   4   2.0000     -14.445829      -393.0910
   5   2.0000     -14.403498      -391.9391
   6   2.0000     -10.304895      -280.4105
   7   2.0000     -10.304445      -280.3982
   8   2.0000     -10.299939      -280.2756
   9   2.0000     -10.297369      -280.2057
  10   2.0000     -10.296945      -280.1941
  11   2.0000     -10.284656      -279.8597
  12   2.0000     -10.278863      -279.7021
  13   2.0000     -10.278784      -279.6999
  14   2.0000     -10.278192      -279.6838
  15   2.0000     -10.278137      -279.6823
  16   2.0000     -10.269427      -279.4453
  17   2.0000     -10.264662      -279.3156
  18   2.0000     -10.261919      -279.2410
  19   2.0000     -10.260841      -279.2117
  20   2.0000     -10.260006      -279.1890
  21   2.0000     -10.258436      -279.1462
  22   2.0000     -10.257979      -279.1338
  23   2.0000     -10.256938      -279.1055
  24   2.0000     -10.256852      -279.1031
  25   2.0000     -10.256782      -279.1012
  26   2.0000     -10.256390      -279.0906
  27   2.0000     -10.256109      -279.0829
  28   2.0000     -10.255339      -279.0620
  29   2.0000     -10.253901      -279.0228
  30   2.0000     -10.249088      -278.8919
  31   2.0000     -10.242274      -278.7064
  32   2.0000     -10.242147      -278.7030
  33   2.0000     -10.242120      -278.7023
  34   2.0000     -10.242049      -278.7003
  35   2.0000     -10.241995      -278.6989
  36   2.0000     -10.241862      -278.6952
  37   2.0000     -10.241598      -278.6881
  38   2.0000     -10.241563      -278.6871
  39   2.0000     -10.241327      -278.6807
  40   2.0000     -10.241110      -278.6748
  41   2.0000     -10.241053      -278.6732
  42   2.0000     -10.240848      -278.6676
  43   2.0000     -10.240680      -278.6631
  44   2.0000     -10.240571      -278.6601
  45   2.0000     -10.240229      -278.6508
  46   2.0000     -10.240220      -278.6505
  47   2.0000     -10.234718      -278.5008
  48   2.0000     -10.234626      -278.4983
  49   2.0000     -10.234298      -278.4894
  50   2.0000     -10.234269      -278.4886
  51   2.0000      -8.111330      -220.7205
  52   2.0000      -6.054410      -164.7489
  53   2.0000      -6.047290      -164.5551
  54   2.0000      -6.045957      -164.5189
  55   2.0000      -1.062591       -28.9146
  56   2.0000      -1.026557       -27.9340
  57   2.0000      -1.026266       -27.9261
  58   2.0000      -0.978965       -26.6390
  59   2.0000      -0.929201       -25.2848
  60   2.0000      -0.904520       -24.6132
  61   2.0000      -0.903500       -24.5855
  62   2.0000      -0.873651       -23.7733
  63   2.0000      -0.873292       -23.7635
  64   2.0000      -0.871342       -23.7104
  65   2.0000      -0.870649       -23.6916
  66   2.0000      -0.852644       -23.2016
  67   2.0000      -0.836442       -22.7607
  68   2.0000      -0.825805       -22.4713
  69   2.0000      -0.814766       -22.1709
  70   2.0000      -0.802025       -21.8242
  71   2.0000      -0.790457       -21.5094
  72   2.0000      -0.786182       -21.3931
  73   2.0000      -0.784916       -21.3587
  74   2.0000      -0.773605       -21.0509
  75   2.0000      -0.771008       -20.9802
  76   2.0000      -0.770779       -20.9740
  77   2.0000      -0.757193       -20.6043
  78   2.0000      -0.742485       -20.2041
  79   2.0000      -0.737811       -20.0768
  80   2.0000      -0.737707       -20.0740
  81   2.0000      -0.722437       -19.6585
  82   2.0000      -0.702648       -19.1200
  83   2.0000      -0.681866       -18.5545
  84   2.0000      -0.674873       -18.3642
  85   2.0000      -0.663532       -18.0556
  86   2.0000      -0.652063       -17.7435
  87   2.0000      -0.650245       -17.6941
  88   2.0000      -0.649068       -17.6620
  89   2.0000      -0.641549       -17.4574
  90   2.0000      -0.626165       -17.0388
  91   2.0000      -0.624764       -17.0007
  92   2.0000      -0.623913       -16.9775
  93   2.0000      -0.610591       -16.6150
  94   2.0000      -0.600003       -16.3269
  95   2.0000      -0.595605       -16.2072
  96   2.0000      -0.593616       -16.1531
  97   2.0000      -0.592985       -16.1359
  98   2.0000      -0.576498       -15.6873
  99   2.0000      -0.565735       -15.3944
 100   2.0000      -0.561008       -15.2658
 101   2.0000      -0.556781       -15.1508
 102   2.0000      -0.540517       -14.7082
 103   2.0000      -0.537922       -14.6376
 104   2.0000      -0.536380       -14.5956
 105   2.0000      -0.526678       -14.3316
 106   2.0000      -0.524011       -14.2591
 107   2.0000      -0.517869       -14.0919
 108   2.0000      -0.512213       -13.9380
 109   2.0000      -0.504664       -13.7326
 110   2.0000      -0.493164       -13.4197
 111   2.0000      -0.492706       -13.4072
 112   2.0000      -0.483602       -13.1595
 113   2.0000      -0.482224       -13.1220
 114   2.0000      -0.479152       -13.0384
 115   2.0000      -0.473619       -12.8878
 116   2.0000      -0.472176       -12.8486
 117   2.0000      -0.471622       -12.8335
 118   2.0000      -0.468599       -12.7512
 119   2.0000      -0.463606       -12.6154
 120   2.0000      -0.456413       -12.4196
 121   2.0000      -0.455531       -12.3956
 122   2.0000      -0.454345       -12.3634
 123   2.0000      -0.453391       -12.3374
 124   2.0000      -0.451702       -12.2914
 125   2.0000      -0.449678       -12.2364
 126   2.0000      -0.444366       -12.0918
 127   2.0000      -0.443707       -12.0739
 128   2.0000      -0.442153       -12.0316
 129   2.0000      -0.438421       -11.9301
 130   2.0000      -0.437580       -11.9072
 131   2.0000      -0.433936       -11.8080
 132   2.0000      -0.431652       -11.7459
 133   2.0000      -0.422583       -11.4991
 134   2.0000      -0.419867       -11.4252
 135   2.0000      -0.411413       -11.1951
 136   2.0000      -0.410624       -11.1736
 137   2.0000      -0.407454       -11.0874
 138   2.0000      -0.404411       -11.0046
 139   2.0000      -0.401444       -10.9238
 140   2.0000      -0.396700       -10.7948
 141   2.0000      -0.383893       -10.4462
 142   2.0000      -0.382002       -10.3948
 143   2.0000      -0.380656       -10.3582
 144   2.0000      -0.380409       -10.3515
 145   2.0000      -0.380262       -10.3474
 146   2.0000      -0.376014       -10.2319
 147   2.0000      -0.375502       -10.2179
 148   2.0000      -0.373664       -10.1679
 149   2.0000      -0.368687       -10.0325
 150   2.0000      -0.358179        -9.7466
 151   2.0000      -0.357607        -9.7310
 152   2.0000      -0.353490        -9.6190
 153   2.0000      -0.352826        -9.6009
 154   2.0000      -0.352432        -9.5902
 155   2.0000      -0.350301        -9.5322
 156   2.0000      -0.349833        -9.5194
 157   2.0000      -0.332383        -9.0446
 158   2.0000      -0.329160        -8.9569
 159   2.0000      -0.326232        -8.8772
 160   2.0000      -0.311768        -8.4836
 161   2.0000      -0.301182        -8.1956
 162   2.0000      -0.300301        -8.1716
 163   2.0000      -0.292054        -7.9472
 164   2.0000      -0.288902        -7.8614
 165   2.0000      -0.286699        -7.8015
 166   2.0000      -0.284692        -7.7469
 167   2.0000      -0.272292        -7.4094
 168   2.0000      -0.271377        -7.3845
 169   2.0000      -0.261042        -7.1033
 170   2.0000      -0.232796        -6.3347
 171   2.0000      -0.232746        -6.3334
 172   2.0000      -0.228440        -6.2162
 173   2.0000      -0.217316        -5.9135
 174   2.0000      -0.204332        -5.5602
 175   0.0000      -0.120465        -3.2780
 176   0.0000      -0.072732        -1.9791
 177   0.0000      -0.052997        -1.4421
 178   0.0000      -0.034817        -0.9474
 179   0.0000      -0.034181        -0.9301

Total SCF time: 0 days 0 hours 1 min 50 sec

-----------------------------------------------------------------------------
         ABSORPTION SPECTRUM VIA TRANSITION ELECTRIC DIPOLE MOMENTS
-----------------------------------------------------------------------------
State   Energy    Wavelength  fosc         T2        TX        TY        TZ
        (cm-1)      (nm)                 (au**2)    (au)      (au)      (au)
-----------------------------------------------------------------------------
   1   16015.6    624.4   1.237270275  25.43302  -5.04277   0.03985   0.04331
   2   18512.3    540.2   0.020768725   0.36934  -0.54760  -0.21982  -0.14546
   3   21048.4    475.1   0.043771944   0.68463   0.82483  -0.05114  -0.04090
   4   21798.5    458.7   0.000019902   0.00030  -0.00126   0.01638  -0.00553
   5   21849.8    457.7   0.000012068   0.00018  -0.00396   0.01202  -0.00465
   6    9174.2   1090.0   spin forbidden (mult=3)
   7   16571.3    603.5   spin forbidden (mult=3)
   8   18613.3    537.3   spin forbidden (mult=3)
   9   19142.5    522.4   spin forbidden (mult=3)
  10   21730.5    460.2   spin forbidden (mult=3)

Dispersion correction           -0.109914858
FINAL SINGLE POINT ENERGY     -2400.244903597746

DIPOLE MOMENT
-------------
                                X             Y             Z
Electronic contribution:     -0.88817      -7.77609      -5.57166
Nuclear contribution   :     -1.74937       8.28340       5.94235
                        -----------------------------------------
Total Dipole Moment    :     -2.63754       0.50731       0.37068
                        -----------------------------------------
Magnitude (a.u.)       :      2.71134
Magnitude (Debye)      :      6.89169

Rotational constants in cm-1:     0.006498     0.000342     0.000331
Rotational constants in MHz :   194.795784    10.258621     9.916814

                             ****ORCA TERMINATED NORMALLY****
TOTAL RUN TIME: 0 days 0 hours 33 minutes 17 seconds 6 msec
