                         Program Version 5.0.3 -  RELEASE  -
|  1> ! PBE0 def2-SVP D3BJ def2/J RIJCOSX tightSCF noautostart miniprint nopop defgrid3
|  2> ! EnGrad
|  3> %maxcore    4000
|  4> %pal    nprocs  8  end
|  5> %tddft  PrintLevel  3
|  6> 	IRootMult	Triplet
|  7> 	TDA	True
|  8> 	NRoots	5
|  9>         MaxDim  10
| 10> end
| 11> * xyzfile 0 1 orcaopt.xyz
| 12>
| 13>
| 14>                          ****END OF INPUT****

CARTESIAN COORDINATES (ANGSTROEM)
---------------------------------
  C     -3.767045    0.673399    0.452246
  C     -2.866995   -0.158949   -0.143822
  C     -1.436299   -0.077755   -0.086906
  C     -0.714932    0.912830    0.613363
  N      0.601793    1.000644    0.674586
  C      1.374143    0.095371    0.034034
  C      2.791650    0.290149    0.172339
  C      3.775184   -0.479257   -0.371988
  C      5.196214   -0.257456   -0.214843
  C      5.747003    0.797878    0.546496
  C      7.114894    0.963810    0.664892
  C      7.994543    0.079793    0.019974
  N      9.384063    0.250514    0.139180
  C     10.294514   -0.736694    0.501020
  C     10.061910   -2.064535    0.868284
  C     11.163849   -2.839496    1.216744
  C     12.462438   -2.309237    1.211655
  C     12.685792   -0.978137    0.867310
  C     11.597816   -0.180794    0.511772
  C     11.458563    1.210694    0.137039
  C     12.365962    2.254179   -0.046330
  C     11.889624    3.498761   -0.451857
  C     10.521647    3.699899   -0.687868
  C      9.596695    2.674890   -0.514309
  C     10.077195    1.435317   -0.084452
  C      7.471932   -0.973879   -0.741617
  C      6.100375   -1.135349   -0.850312
  C      0.778965   -0.966853   -0.717818
  N      1.405925   -1.934842   -1.402002
  S      0.214754   -2.874934   -2.069446
  N     -1.119842   -2.072670   -1.498430
  C     -0.653399   -1.051446   -0.776941
  C     -5.203839    0.553855    0.369293
  C     -6.018415    1.481003    1.056847
  C     -7.400161    1.410332    1.015815
  C     -8.028852    0.399890    0.274160
  N     -9.428487    0.319277    0.226591
  C    -10.293204    1.372685   -0.055500
  C     -9.996808    2.693314   -0.402027
  C    -11.064760    3.545488   -0.666746
  C    -12.391622    3.096584   -0.601532
  C    -12.680117    1.771443   -0.281132
  C    -11.627418    0.898763   -0.008759
  C    -11.556756   -0.510693    0.317325
  C    -12.517660   -1.499984    0.522008
  C    -12.100207   -2.784415    0.865316
  C    -10.737704   -3.077771    1.020002
  C     -9.759852   -2.107139    0.824195
  C    -10.182973   -0.827961    0.454357
  C     -7.240138   -0.531696   -0.421404
  C     -5.861273   -0.455300   -0.373213
  H     -3.400851    1.510968    1.053430
  H     -3.228045   -1.000357   -0.743744
  H     -1.266405    1.686382    1.160275
  H      3.033104    1.161413    0.788571
  H      3.469409   -1.335555   -0.979176
  H      5.084166    1.489829    1.068803
  H      7.520439    1.767191    1.282934
  H      9.052982   -2.478005    0.892263
  H     11.010034   -3.881521    1.505788
  H     13.304713   -2.945889    1.490276
  H     13.695814   -0.562364    0.881326
  H     13.433846    2.094834    0.119313
  H     12.588053    4.325384   -0.597741
  H     10.172177    4.679567   -1.021268
  H      8.536924    2.832834   -0.717865
  H      8.151569   -1.646973   -1.267667
  H      5.699808   -1.951687   -1.456022
  H     -5.539916    2.263239    1.651304
  H     -8.006417    2.118636    1.583450
  H     -8.966715    3.043541   -0.476130
  H    -10.861269    4.583697   -0.937895
  H    -13.205878    3.791877   -0.815550
  H    -13.713642    1.419426   -0.250901
  H    -13.580559   -1.269405    0.421567
  H    -12.841217   -3.570006    1.026540
  H    -10.434179   -4.086984    1.306573
  H     -8.703471   -2.337364    0.966628
  H     -7.725658   -1.299323   -1.026863
  H     -5.274163   -1.181512   -0.937476

ORBITAL ENERGIES
----------------

  NO   OCC          E(Eh)            E(eV)
   0   2.0000     -89.114099     -2424.9179
   1   2.0000     -14.452444      -393.2710
   2   2.0000     -14.452422      -393.2704
   3   2.0000     -14.450405      -393.2155
   4   2.0000     -14.445864      -393.0920
   5   2.0000     -14.403566      -391.9410
   6   2.0000     -10.305294      -280.4213
   7   2.0000     -10.304374      -280.3963
   8   2.0000     -10.299460      -280.2626
   9   2.0000     -10.297233      -280.2020
  10   2.0000     -10.296276      -280.1759
  11   2.0000     -10.284440      -279.8538
  12   2.0000     -10.279113      -279.7089
  13   2.0000     -10.279057      -279.7074
  14   2.0000     -10.278998      -279.7057
  15   2.0000     -10.278914      -279.7035
  16   2.0000     -10.269316      -279.4423
  17   2.0000     -10.262201      -279.2487
  18   2.0000     -10.260977      -279.2154
  19   2.0000     -10.258132      -279.1380
  20   2.0000     -10.256530      -279.0944
  21   2.0000     -10.256396      -279.0907
  22   2.0000     -10.256313      -279.0885
  23   2.0000     -10.256034      -279.0809
  24   2.0000     -10.255832      -279.0754
  25   2.0000     -10.255427      -279.0644
  26   2.0000     -10.255222      -279.0588
  27   2.0000     -10.255049      -279.0541
  28   2.0000     -10.254990      -279.0525
  29   2.0000     -10.253973      -279.0248
  30   2.0000     -10.248710      -278.8816
  31   2.0000     -10.242619      -278.7158
  32   2.0000     -10.242486      -278.7122
  33   2.0000     -10.242467      -278.7117
  34   2.0000     -10.242352      -278.7086
  35   2.0000     -10.242327      -278.7079
  36   2.0000     -10.242326      -278.7079
  37   2.0000     -10.242217      -278.7049
  38   2.0000     -10.242152      -278.7031
  39   2.0000     -10.241745      -278.6920
  40   2.0000     -10.241604      -278.6882
  41   2.0000     -10.241540      -278.6865
  42   2.0000     -10.241396      -278.6825
  43   2.0000     -10.240893      -278.6689
  44   2.0000     -10.240857      -278.6679
  45   2.0000     -10.240768      -278.6655
  46   2.0000     -10.240677      -278.6630
  47   2.0000     -10.235033      -278.5094
  48   2.0000     -10.235028      -278.5093
  49   2.0000     -10.234908      -278.5060
  50   2.0000     -10.234844      -278.5043
  51   2.0000      -8.111055      -220.7130
  52   2.0000      -6.054239      -164.7442
  53   2.0000      -6.047079      -164.5494
  54   2.0000      -6.045534      -164.5073
  55   2.0000      -1.060446       -28.8562
  56   2.0000      -1.026898       -27.9433
  57   2.0000      -1.026735       -27.9389
  58   2.0000      -0.979040       -26.6410
  59   2.0000      -0.929880       -25.3033
  60   2.0000      -0.904055       -24.6006
  61   2.0000      -0.904032       -24.6000
  62   2.0000      -0.874344       -23.7921
  63   2.0000      -0.873271       -23.7629
  64   2.0000      -0.871647       -23.7187
  65   2.0000      -0.871427       -23.7127
  66   2.0000      -0.851944       -23.1826
  67   2.0000      -0.837025       -22.7766
  68   2.0000      -0.825445       -22.4615
  69   2.0000      -0.815007       -22.1775
  70   2.0000      -0.802569       -21.8390
  71   2.0000      -0.790147       -21.5010
  72   2.0000      -0.785185       -21.3660
  73   2.0000      -0.784960       -21.3598
  74   2.0000      -0.773835       -21.0571
  75   2.0000      -0.770925       -20.9779
  76   2.0000      -0.770760       -20.9734
  77   2.0000      -0.757737       -20.6191
  78   2.0000      -0.742175       -20.1956
  79   2.0000      -0.738526       -20.0963
  80   2.0000      -0.738231       -20.0883
  81   2.0000      -0.723319       -19.6825
  82   2.0000      -0.704020       -19.1574
  83   2.0000      -0.681281       -18.5386
  84   2.0000      -0.674660       -18.3584
  85   2.0000      -0.663890       -18.0654
  86   2.0000      -0.651923       -17.7397
  87   2.0000      -0.650567       -17.7028
  88   2.0000      -0.649174       -17.6649
  89   2.0000      -0.641482       -17.4556
  90   2.0000      -0.626530       -17.0487
  91   2.0000      -0.624420       -16.9913
  92   2.0000      -0.623927       -16.9779
  93   2.0000      -0.609826       -16.5942
  94   2.0000      -0.599845       -16.3226
  95   2.0000      -0.595485       -16.2040
  96   2.0000      -0.593929       -16.1616
  97   2.0000      -0.593220       -16.1423
  98   2.0000      -0.574380       -15.6297
  99   2.0000      -0.565597       -15.3907
 100   2.0000      -0.561344       -15.2749
 101   2.0000      -0.557206       -15.1623
 102   2.0000      -0.541056       -14.7229
 103   2.0000      -0.538481       -14.6528
 104   2.0000      -0.536910       -14.6101
 105   2.0000      -0.527076       -14.3425
 106   2.0000      -0.524389       -14.2693
 107   2.0000      -0.516226       -14.0472
 108   2.0000      -0.512078       -13.9344
 109   2.0000      -0.504919       -13.7395
 110   2.0000      -0.493105       -13.4181
 111   2.0000      -0.491648       -13.3784
 112   2.0000      -0.483761       -13.1638
 113   2.0000      -0.482206       -13.1215
 114   2.0000      -0.479910       -13.0590
 115   2.0000      -0.473684       -12.8896
 116   2.0000      -0.472811       -12.8659
 117   2.0000      -0.471643       -12.8341
 118   2.0000      -0.468632       -12.7521
 119   2.0000      -0.464813       -12.6482
 120   2.0000      -0.457432       -12.4474
 121   2.0000      -0.455322       -12.3899
 122   2.0000      -0.453984       -12.3535
 123   2.0000      -0.453438       -12.3387
 124   2.0000      -0.451633       -12.2896
 125   2.0000      -0.449877       -12.2418
 126   2.0000      -0.444672       -12.1001
 127   2.0000      -0.444418       -12.0932
 128   2.0000      -0.441952       -12.0261
 129   2.0000      -0.438004       -11.9187
 130   2.0000      -0.437253       -11.8983
 131   2.0000      -0.434586       -11.8257
 132   2.0000      -0.431671       -11.7464
 133   2.0000      -0.422080       -11.4854
 134   2.0000      -0.420540       -11.4435
 135   2.0000      -0.410966       -11.1830
 136   2.0000      -0.410429       -11.1683
 137   2.0000      -0.407118       -11.0782
 138   2.0000      -0.404629       -11.0105
 139   2.0000      -0.400745       -10.9048
 140   2.0000      -0.393445       -10.7062
 141   2.0000      -0.384418       -10.4605
 142   2.0000      -0.382143       -10.3986
 143   2.0000      -0.381117       -10.3707
 144   2.0000      -0.380857       -10.3636
 145   2.0000      -0.380616       -10.3571
 146   2.0000      -0.376031       -10.2323
 147   2.0000      -0.375789       -10.2257
 148   2.0000      -0.372684       -10.1412
 149   2.0000      -0.369285       -10.0487
 150   2.0000      -0.359257        -9.7759
 151   2.0000      -0.358594        -9.7578
 152   2.0000      -0.353452        -9.6179
 153   2.0000      -0.353266        -9.6129
 154   2.0000      -0.352527        -9.5927
 155   2.0000      -0.351415        -9.5625
 156   2.0000      -0.347594        -9.4585
 157   2.0000      -0.332477        -9.0472
 158   2.0000      -0.329087        -8.9549
 159   2.0000      -0.326103        -8.8737
 160   2.0000      -0.311297        -8.4708
 161   2.0000      -0.301692        -8.2095
 162   2.0000      -0.300768        -8.1843
 163   2.0000      -0.291081        -7.9207
 164   2.0000      -0.286754        -7.8030
 165   2.0000      -0.286654        -7.8003
 166   2.0000      -0.284888        -7.7522
 167   2.0000      -0.272231        -7.4078
 168   2.0000      -0.272119        -7.4047
 169   2.0000      -0.261871        -7.1259
 170   2.0000      -0.233610        -6.3569
 171   2.0000      -0.233287        -6.3481
 172   2.0000      -0.229660        -6.2494
 173   2.0000      -0.216963        -5.9039
 174   2.0000      -0.204374        -5.5613
 175   0.0000      -0.121512        -3.3065
 176   0.0000      -0.068586        -1.8663
 177   0.0000      -0.050826        -1.3830
 178   0.0000      -0.034919        -0.9502
 179   0.0000      -0.034778        -0.9464

Total SCF time: 0 days 0 hours 42 min 47 sec

-----------------------------------------------------------------------------
         ABSORPTION SPECTRUM VIA TRANSITION ELECTRIC DIPOLE MOMENTS
-----------------------------------------------------------------------------
State   Energy    Wavelength  fosc         T2        TX        TY        TZ
        (cm-1)      (nm)                 (au**2)    (au)      (au)      (au)
-----------------------------------------------------------------------------
   1   15760.0    634.5   1.199622655  25.05894  -5.00578   0.02104   0.02513
   2   18272.8    547.3   0.012402990   0.22346   0.33838   0.26644   0.19486
   3   21167.0    472.4   0.072191362   1.12280  -1.05896   0.03114   0.02056
   4   21660.7    461.7   0.000016005   0.00024   0.00177  -0.01424   0.00612
   5   21906.2    456.5   0.000014163   0.00021   0.00331  -0.01310   0.00550
   6    9123.4   1096.1   spin forbidden (mult=3)
   7   16420.9    609.0   spin forbidden (mult=3)
   8   18457.1    541.8   spin forbidden (mult=3)
   9   20281.8    493.1   spin forbidden (mult=3)
  10   21589.8    463.2   spin forbidden (mult=3)

Dispersion correction           -0.110040486
FINAL SINGLE POINT ENERGY     -2400.292424277302
Dispersion correction                    ... done

DIPOLE MOMENT
-------------
                                X             Y             Z
Electronic contribution:      0.86462      -8.28995      -5.92065
Nuclear contribution   :     -1.78108       8.69064       6.21296
                        -----------------------------------------
Total Dipole Moment    :     -0.91646       0.40069       0.29231
                        -----------------------------------------
Magnitude (a.u.)       :      1.04207
Magnitude (Debye)      :      2.64872

Rotational constants in cm-1:     0.006392     0.000343     0.000331
Rotational constants in MHz :   191.631075    10.282243     9.925584

                             ****ORCA TERMINATED NORMALLY****
TOTAL RUN TIME: 0 days 1 hours 41 minutes 28 seconds 424 msec
