                         Program Version 5.0.3 -  RELEASE  -
|  1> ! PBE0 def2-SVP D3BJ def2/J RIJCOSX tightSCF noautostart miniprint nopop defgrid3 Opt
|  2> %maxcore    4000
|  3> %pal    nprocs  40  end
|  4> %geom	Convergence	loose
|  5> 	MaxIter	5
|  6> end
|  7> %tddft  PrintLevel  3
|  8> 	IRootMult	Singlet
|  9> 	NRoots	5
| 10> 	IRoot	1
| 11> 	TDA	True
| 12>         MaxDim  10
| 13> end
| 14> * xyzfile 0 1 S0_XTB_OPT_XYZ.xyz
| 15>
| 16>
| 17>                          ****END OF INPUT****
Dispersion correction           -0.131318420
FINAL SINGLE POINT ENERGY     -2225.366370787827
Dispersion correction                    ... done
Dispersion correction           -0.130819145
FINAL SINGLE POINT ENERGY     -2225.379666415035
Dispersion correction                    ... done
Dispersion correction           -0.130744757
FINAL SINGLE POINT ENERGY     -2225.380627850759
Dispersion correction                    ... done
Dispersion correction           -0.130745854
FINAL SINGLE POINT ENERGY     -2225.380773045028
Dispersion correction                    ... done
                    ***********************HURRAY********************

CARTESIAN COORDINATES (ANGSTROEM)
---------------------------------
  C      0.000266    0.095206   -1.526956
  C     -0.000115   -0.100691   -0.006791
  C     -0.000362    1.252615    0.712904
  C     -1.177365   -0.956925    0.435810
  C     -2.518256   -0.696817    0.305666
  C     -3.480190   -1.631901    0.792530
  C     -4.891009   -1.423731    0.694486
  C     -5.527438   -0.341309    0.137468
  C     -6.944524   -0.137404    0.050099
  C     -7.905022   -1.050727    0.559574
  C     -9.260579   -0.807857    0.453176
  C     -9.731965    0.359640   -0.172268
  N    -11.109686    0.602938   -0.279689
  C    -11.757175    1.781345    0.078941
  C    -11.232433    2.939892    0.657320
  C    -12.116312    3.975433    0.944917
  C    -13.488886    3.862834    0.675890
  C    -14.010142    2.696883    0.121658
  C    -13.143973    1.644240   -0.177822
  C    -13.336735    0.314737   -0.715780
  C    -14.453893   -0.387644   -1.170366
  C    -14.283517   -1.675620   -1.670784
  C    -13.007418   -2.255930   -1.732897
  C    -11.877919   -1.576063   -1.287573
  C    -12.057708   -0.293267   -0.763947
  C     -8.801933    1.279149   -0.685824
  C     -7.446531    1.033315   -0.572394
  C     -2.997560   -2.823372    1.405097
  C     -1.651427   -3.092116    1.539101
  C     -0.714873   -2.154301    1.052822
  C      0.714301   -2.154218    1.053212
  C      1.650690   -3.091760    1.540331
  C      2.996869   -2.822881    1.407046
  C      3.479691   -1.631610    0.794251
  C      4.890546   -1.423619    0.696255
  C      5.527159   -0.342955    0.136047
  C      6.944286   -0.138850    0.049653
  C      7.446769    1.027119   -0.581299
  C      8.802256    1.272432   -0.694929
  C      9.731861    0.357303   -0.172863
  N     11.109676    0.599900   -0.280622
  C     11.756616    1.781442    0.068501
  C     11.231180    2.944722    0.636668
  C     12.114609    3.982853    0.916187
  C     13.487422    3.868289    0.649200
  C     14.009357    2.697815    0.105245
  C     13.143643    1.642496   -0.186024
  C     13.337124    0.308540   -0.712578
  C     14.454809   -0.397406   -1.160295
  C     14.285130   -1.689621   -1.649905
  C     13.009212   -2.270735   -1.708097
  C     11.879200   -1.587381   -1.269463
  C     12.058276   -0.300145   -0.756609
  C      9.259974   -0.805080    0.461673
  C      7.904353   -1.047489    0.568248
  C      2.517924   -0.696586    0.306945
  C      1.176990   -0.956832    0.436369
  H      0.891505    0.657852   -1.846025
  H     -0.890901    0.657686   -1.846518
  H      0.000502   -0.873707   -2.047007
  H     -0.891476    1.838537    0.438513
  H      0.890868    1.838605    0.439040
  H     -0.000682    1.116071    1.804052
  H     -2.852489    0.228489   -0.169046
  H     -5.504505   -2.226764    1.115539
  H     -4.918652    0.460943   -0.290347
  H     -7.573748   -1.958562    1.066636
  H     -9.978259   -1.510762    0.881112
  H    -10.169637    3.027353    0.886192
  H    -11.731032    4.892874    1.395726
  H    -14.154011    4.695695    0.913674
  H    -15.081483    2.602785   -0.070312
  H    -15.445096    0.070668   -1.139600
  H    -15.148529   -2.238234   -2.028286
  H    -12.894208   -3.261261   -2.145026
  H    -10.886836   -2.026258   -1.355975
  H     -9.159080    2.174563   -1.198211
  H     -6.736503    1.752122   -0.989787
  H     -3.730241   -3.543590    1.779744
  H     -1.317544   -4.016710    2.015416
  H      1.316640   -4.016230    2.016770
  H      3.729425   -3.542913    1.782291
  H      5.503942   -2.225637    1.119379
  H      4.918567    0.456951   -0.296410
  H      6.737095    1.742310   -1.005448
  H      9.159804    2.163806   -1.214035
  H     10.168183    3.033884    0.863953
  H     11.728779    4.903990    1.358919
  H     14.152177    4.703279    0.880461
  H     15.080866    2.602327   -0.085093
  H     15.445880    0.061388   -1.132613
  H     15.150556   -2.255048   -2.001923
  H     12.896556   -3.279561   -2.111751
  H     10.888284   -2.038395   -1.334804
  H      9.977316   -1.504008    0.896638
  H      7.572609   -1.950714    1.083171
  H      2.852347    0.229025   -0.167038

ORBITAL ENERGIES
----------------

  NO   OCC          E(Eh)            E(eV)
   0   2.0000     -14.449955      -393.2033
   1   2.0000     -14.449946      -393.2030
   2   2.0000     -10.292433      -280.0713
   3   2.0000     -10.292430      -280.0712
   4   2.0000     -10.276978      -279.6508
   5   2.0000     -10.276974      -279.6507
   6   2.0000     -10.276926      -279.6494
   7   2.0000     -10.276922      -279.6493
   8   2.0000     -10.263680      -279.2889
   9   2.0000     -10.258800      -279.1561
  10   2.0000     -10.258796      -279.1560
  11   2.0000     -10.256413      -279.0912
  12   2.0000     -10.256407      -279.0910
  13   2.0000     -10.252927      -278.9963
  14   2.0000     -10.252925      -278.9963
  15   2.0000     -10.252631      -278.9883
  16   2.0000     -10.252630      -278.9882
  17   2.0000     -10.252408      -278.9822
  18   2.0000     -10.252406      -278.9822
  19   2.0000     -10.251936      -278.9694
  20   2.0000     -10.251936      -278.9694
  21   2.0000     -10.250633      -278.9339
  22   2.0000     -10.250630      -278.9338
  23   2.0000     -10.250082      -278.9189
  24   2.0000     -10.250020      -278.9172
  25   2.0000     -10.250017      -278.9171
  26   2.0000     -10.249854      -278.9127
  27   2.0000     -10.248309      -278.8707
  28   2.0000     -10.248217      -278.8682
  29   2.0000     -10.247946      -278.8608
  30   2.0000     -10.247911      -278.8598
  31   2.0000     -10.247183      -278.8400
  32   2.0000     -10.247177      -278.8399
  33   2.0000     -10.246856      -278.8311
  34   2.0000     -10.246835      -278.8305
  35   2.0000     -10.240848      -278.6676
  36   2.0000     -10.240845      -278.6676
  37   2.0000     -10.240716      -278.6641
  38   2.0000     -10.240713      -278.6640
  39   2.0000     -10.240400      -278.6554
  40   2.0000     -10.240398      -278.6554
  41   2.0000     -10.240365      -278.6545
  42   2.0000     -10.240360      -278.6544
  43   2.0000     -10.239770      -278.6383
  44   2.0000     -10.239766      -278.6382
  45   2.0000     -10.239559      -278.6326
  46   2.0000     -10.239556      -278.6325
  47   2.0000     -10.239187      -278.6225
  48   2.0000     -10.239185      -278.6224
  49   2.0000     -10.239182      -278.6223
  50   2.0000     -10.239181      -278.6223
  51   2.0000     -10.237702      -278.5820
  52   2.0000     -10.237677      -278.5814
  53   2.0000     -10.233311      -278.4626
  54   2.0000     -10.233309      -278.4625
  55   2.0000     -10.233304      -278.4624
  56   2.0000     -10.233302      -278.4623
  57   2.0000      -1.024106       -27.8673
  58   2.0000      -1.024101       -27.8672
  59   2.0000      -0.922522       -25.1031
  60   2.0000      -0.900265       -24.4975
  61   2.0000      -0.900094       -24.4928
  62   2.0000      -0.881041       -23.9743
  63   2.0000      -0.871436       -23.7130
  64   2.0000      -0.869584       -23.6626
  65   2.0000      -0.869581       -23.6625
  66   2.0000      -0.869402       -23.6576
  67   2.0000      -0.853581       -23.2271
  68   2.0000      -0.828244       -22.5377
  69   2.0000      -0.826822       -22.4990
  70   2.0000      -0.813076       -22.1249
  71   2.0000      -0.803029       -21.8515
  72   2.0000      -0.791286       -21.5320
  73   2.0000      -0.781992       -21.2791
  74   2.0000      -0.781843       -21.2750
  75   2.0000      -0.777046       -21.1445
  76   2.0000      -0.770104       -20.9556
  77   2.0000      -0.768871       -20.9220
  78   2.0000      -0.768706       -20.9176
  79   2.0000      -0.763500       -20.7759
  80   2.0000      -0.755820       -20.5669
  81   2.0000      -0.747662       -20.3449
  82   2.0000      -0.736298       -20.0357
  83   2.0000      -0.736291       -20.0355
  84   2.0000      -0.731063       -19.8932
  85   2.0000      -0.711359       -19.3571
  86   2.0000      -0.708860       -19.2891
  87   2.0000      -0.689267       -18.7559
  88   2.0000      -0.670363       -18.2415
  89   2.0000      -0.668459       -18.1897
  90   2.0000      -0.652908       -17.7665
  91   2.0000      -0.648982       -17.6597
  92   2.0000      -0.646906       -17.6032
  93   2.0000      -0.640267       -17.4226
  94   2.0000      -0.631903       -17.1950
  95   2.0000      -0.622693       -16.9443
  96   2.0000      -0.621712       -16.9176
  97   2.0000      -0.615622       -16.7519
  98   2.0000      -0.608382       -16.5549
  99   2.0000      -0.601568       -16.3695
 100   2.0000      -0.597388       -16.2558
 101   2.0000      -0.592011       -16.1094
 102   2.0000      -0.591883       -16.1060
 103   2.0000      -0.586415       -15.9572
 104   2.0000      -0.578158       -15.7325
 105   2.0000      -0.565857       -15.3978
 106   2.0000      -0.559122       -15.2145
 107   2.0000      -0.558731       -15.2038
 108   2.0000      -0.537111       -14.6155
 109   2.0000      -0.535745       -14.5784
 110   2.0000      -0.534414       -14.5421
 111   2.0000      -0.530283       -14.4297
 112   2.0000      -0.526027       -14.3139
 113   2.0000      -0.520365       -14.1599
 114   2.0000      -0.516618       -14.0579
 115   2.0000      -0.505911       -13.7665
 116   2.0000      -0.504887       -13.7387
 117   2.0000      -0.489524       -13.3206
 118   2.0000      -0.485573       -13.2131
 119   2.0000      -0.481427       -13.1003
 120   2.0000      -0.481048       -13.0900
 121   2.0000      -0.471480       -12.8296
 122   2.0000      -0.471104       -12.8194
 123   2.0000      -0.467679       -12.7262
 124   2.0000      -0.467480       -12.7208
 125   2.0000      -0.467267       -12.7150
 126   2.0000      -0.464676       -12.6445
 127   2.0000      -0.458041       -12.4639
 128   2.0000      -0.457930       -12.4609
 129   2.0000      -0.456082       -12.4106
 130   2.0000      -0.455332       -12.3902
 131   2.0000      -0.451468       -12.2851
 132   2.0000      -0.451016       -12.2728
 133   2.0000      -0.450875       -12.2689
 134   2.0000      -0.449629       -12.2350
 135   2.0000      -0.449492       -12.2313
 136   2.0000      -0.445209       -12.1148
 137   2.0000      -0.442583       -12.0433
 138   2.0000      -0.442430       -12.0391
 139   2.0000      -0.441448       -12.0124
 140   2.0000      -0.438047       -11.9199
 141   2.0000      -0.434847       -11.8328
 142   2.0000      -0.431989       -11.7550
 143   2.0000      -0.431261       -11.7352
 144   2.0000      -0.415843       -11.3157
 145   2.0000      -0.412961       -11.2372
 146   2.0000      -0.411470       -11.1967
 147   2.0000      -0.407729       -11.0949
 148   2.0000      -0.405967       -11.0469
 149   2.0000      -0.402459       -10.9515
 150   2.0000      -0.399681       -10.8759
 151   2.0000      -0.395024       -10.7491
 152   2.0000      -0.389815       -10.6074
 153   2.0000      -0.389159       -10.5895
 154   2.0000      -0.387493       -10.5442
 155   2.0000      -0.380247       -10.3471
 156   2.0000      -0.380001       -10.3404
 157   2.0000      -0.379247       -10.3198
 158   2.0000      -0.379103       -10.3159
 159   2.0000      -0.374980       -10.2037
 160   2.0000      -0.374231       -10.1833
 161   2.0000      -0.372864       -10.1461
 162   2.0000      -0.368974       -10.0403
 163   2.0000      -0.367670       -10.0048
 164   2.0000      -0.365670        -9.9504
 165   2.0000      -0.365030        -9.9330
 166   2.0000      -0.357497        -9.7280
 167   2.0000      -0.356740        -9.7074
 168   2.0000      -0.351616        -9.5680
 169   2.0000      -0.351532        -9.5657
 170   2.0000      -0.351527        -9.5655
 171   2.0000      -0.348773        -9.4906
 172   2.0000      -0.340834        -9.2746
 173   2.0000      -0.336839        -9.1658
 174   2.0000      -0.334175        -9.0934
 175   2.0000      -0.323964        -8.8155
 176   2.0000      -0.304098        -8.2749
 177   2.0000      -0.299187        -8.1413
 178   2.0000      -0.297261        -8.0889
 179   2.0000      -0.283734        -7.7208
 180   2.0000      -0.283679        -7.7193
 181   2.0000      -0.277094        -7.5401
 182   2.0000      -0.272165        -7.4060
 183   2.0000      -0.271268        -7.3816
 184   2.0000      -0.270476        -7.3600
 185   2.0000      -0.270468        -7.3598
 186   2.0000      -0.240571        -6.5463
 187   2.0000      -0.231421        -6.2973
 188   2.0000      -0.231418        -6.2972
 189   2.0000      -0.222511        -6.0548
 190   2.0000      -0.211210        -5.7473
 191   2.0000      -0.196568        -5.3489
 192   0.0000      -0.087616        -2.3841
 193   0.0000      -0.059288        -1.6133
 194   0.0000      -0.033185        -0.9030
 195   0.0000      -0.033182        -0.9029
 196   0.0000      -0.020856        -0.5675

Total SCF time: 0 days 0 hours 2 min 17 sec

-----------------------------------------------------------------------------
         ABSORPTION SPECTRUM VIA TRANSITION ELECTRIC DIPOLE MOMENTS
-----------------------------------------------------------------------------
State   Energy    Wavelength  fosc         T2        TX        TY        TZ
        (cm-1)      (nm)                 (au**2)    (au)      (au)      (au)
-----------------------------------------------------------------------------
   1   21212.3    471.4   3.315855365  51.46162   7.17368  -0.00114  -0.00037
   2   24293.5    411.6   0.027376584   0.37099  -0.00045  -0.55028   0.26112
   3   27043.6    369.8   0.387870310   4.72170  -2.17295  -0.00021   0.00040
   4   27282.5    366.5   0.063188024   0.76248   0.00311  -0.78834   0.37548
   5   28540.4    350.4   0.000074003   0.00085   0.00312   0.02477   0.01518

Dispersion correction           -0.130750953
FINAL SINGLE POINT ENERGY     -2225.380799957458

DIPOLE MOMENT
-------------
                                X             Y             Z
Electronic contribution:     -0.00425      -2.78677       1.59459
Nuclear contribution   :      0.00028       3.20748      -1.79976
                        -----------------------------------------
Total Dipole Moment    :     -0.00397       0.42071      -0.20517
                        -----------------------------------------
Magnitude (a.u.)       :      0.46809
Magnitude (Debye)      :      1.18980

Rotational constants in cm-1:     0.005270     0.000247     0.000240
Rotational constants in MHz :   158.003026     7.414210     7.199561

                             ****ORCA TERMINATED NORMALLY****
TOTAL RUN TIME: 0 days 0 hours 29 minutes 33 seconds 548 msec
