                         Program Version 5.0.3 -  RELEASE  -
|  1> ! PBE0 def2-SVP D3BJ def2/J RIJCOSX tightSCF noautostart miniprint nopop defgrid3 Opt
|  2> %maxcore    4000
|  3> %pal    nprocs  40  end
|  4> %geom	Convergence	loose
|  5> 	MaxIter	5
|  6> end
|  7> %tddft  PrintLevel  3
|  8> 	IRootMult	Triplet
|  9> 	NRoots	5
| 10> 	IRoot	2
| 11> 	TDA	True
| 12>         MaxDim  10
| 13> end
| 14> * xyzfile 0 1 T1_XTB_OPT_XYZ.xyz
| 15>
| 16>
| 17>                          ****END OF INPUT****
Dispersion correction           -0.131430505
FINAL SINGLE POINT ENERGY     -2225.387599696032
Dispersion correction                    ... done
Dispersion correction           -0.130798620
FINAL SINGLE POINT ENERGY     -2225.399246755335
Dispersion correction                    ... done
Dispersion correction           -0.130685404
FINAL SINGLE POINT ENERGY     -2225.399991375580
Dispersion correction                    ... done
Dispersion correction           -0.130676902
FINAL SINGLE POINT ENERGY     -2225.400129041504
Dispersion correction                    ... done
                    ***********************HURRAY********************

CARTESIAN COORDINATES (ANGSTROEM)
---------------------------------
  C     -0.000135    0.010760   -1.526275
  C     -0.000135   -0.160173   -0.002705
  C     -0.000010    1.205628    0.693786
  C     -1.177109   -1.009241    0.454557
  C     -2.524624   -0.746023    0.318313
  C     -3.485330   -1.666979    0.817986
  C     -4.898191   -1.454745    0.716719
  C     -5.529738   -0.359295    0.135719
  C     -6.936161   -0.146498    0.044683
  C     -7.905208   -1.052313    0.562123
  C     -9.257834   -0.797659    0.455798
  C     -9.721015    0.368131   -0.180026
  N    -11.096388    0.621826   -0.289003
  C    -11.736051    1.803883    0.075078
  C    -11.205563    2.957644    0.656518
  C    -12.083485    3.997237    0.947644
  C    -13.457132    3.894545    0.678271
  C    -13.983453    2.735175    0.119145
  C    -13.122622    1.676949   -0.183933
  C    -13.324254    0.352971   -0.729646
  C    -14.448400   -0.338514   -1.188889
  C    -14.290157   -1.624450   -1.693943
  C    -13.018788   -2.216021   -1.754784
  C    -11.883764   -1.548503   -1.304900
  C    -12.051134   -0.265570   -0.778901
  C     -8.782722    1.277479   -0.704808
  C     -7.431046    1.025933   -0.589289
  C     -3.008790   -2.847307    1.448057
  C     -1.656068   -3.112522    1.584570
  C     -0.728939   -2.189433    1.086736
  C      0.728341   -2.189572    1.086699
  C      1.655317   -3.112784    1.584595
  C      3.008081   -2.847809    1.448054
  C      3.484815   -1.667606    0.817891
  C      4.897706   -1.455711    0.716411
  C      5.529460   -0.361394    0.133481
  C      6.935907   -0.148593    0.042928
  C      7.431103    1.021780   -0.594600
  C      8.782833    1.273065   -0.710074
  C      9.720874    0.365557   -0.181668
  N     11.096289    0.618946   -0.290720
  C     11.735765    1.802136    0.070022
  C     11.204919    2.957893    0.647148
  C     12.082718    3.998341    0.935591
  C     13.456587    3.894594    0.667771
  C     13.983249    2.733306    0.112961
  C     13.122549    1.674186   -0.187343
  C     13.324519    0.348378   -0.728476
  C     14.448984   -0.344728   -1.184472
  C     14.291039   -1.632311   -1.685414
  C     13.019659   -2.223951   -1.745382
  C     11.884322   -1.554831   -1.298681
  C     12.051377   -0.270185   -0.776777
  C      9.257376   -0.798066    0.457896
  C      7.904706   -1.052457    0.564244
  C      2.524260   -0.746423    0.318338
  C      1.176703   -1.009452    0.454519
  H      0.890418    0.568622   -1.854935
  H     -0.890519    0.568904   -1.854915
  H     -0.000294   -0.966172   -2.031145
  H     -0.890371    1.787407    0.409012
  H      0.890481    1.787233    0.409063
  H     -0.000050    1.088838    1.787250
  H     -2.855389    0.171970   -0.172299
  H     -5.521838   -2.243550    1.146842
  H     -4.908116    0.428617   -0.299060
  H     -7.580550   -1.960315    1.072536
  H     -9.982106   -1.491922    0.886377
  H    -10.142158    3.040349    0.885405
  H    -11.692251    4.910912    1.401329
  H    -14.117162    4.730646    0.919000
  H    -15.054890    2.647923   -0.075947
  H    -15.435253    0.129121   -1.155885
  H    -15.159585   -2.177994   -2.054965
  H    -12.913810   -3.221520   -2.169083
  H    -10.897709   -2.010347   -1.371732
  H     -9.136224    2.171408   -1.222001
  H     -6.714851    1.736572   -1.010024
  H     -3.741787   -3.560479    1.834264
  H     -1.321178   -4.029444    2.075332
  H      1.320273   -4.029615    2.075425
  H      3.740962   -3.561102    1.834257
  H      5.521222   -2.243991    1.147687
  H      4.908008    0.425284   -0.303771
  H      6.715126    1.730925   -1.018217
  H      9.136573    2.165273   -1.230066
  H     10.141328    3.041517    0.874835
  H     11.691190    4.913563    1.385893
  H     14.116508    4.731412    0.906301
  H     15.054844    2.645264   -0.080905
  H     15.435854    0.122922   -1.152176
  H     15.160716   -2.187132   -2.043866
  H     12.914926   -3.230802   -2.156445
  H     10.898279   -2.016801   -1.364827
  H      9.981417   -1.490740    0.891413
  H      7.579798   -1.958549    1.077884
  H      2.855186    0.171712   -0.171902

ORBITAL ENERGIES
----------------

  NO   OCC          E(Eh)            E(eV)
   0   2.0000     -14.449842      -393.2002
   1   2.0000     -14.449838      -393.2001
   2   2.0000     -10.292524      -280.0738
   3   2.0000     -10.292520      -280.0737
   4   2.0000     -10.276895      -279.6485
   5   2.0000     -10.276893      -279.6485
   6   2.0000     -10.276841      -279.6471
   7   2.0000     -10.276839      -279.6470
   8   2.0000     -10.263736      -279.2905
   9   2.0000     -10.259066      -279.1634
  10   2.0000     -10.259066      -279.1634
  11   2.0000     -10.256023      -279.0806
  12   2.0000     -10.256017      -279.0804
  13   2.0000     -10.253162      -279.0027
  14   2.0000     -10.253161      -279.0027
  15   2.0000     -10.252877      -278.9950
  16   2.0000     -10.252877      -278.9950
  17   2.0000     -10.252704      -278.9903
  18   2.0000     -10.252702      -278.9902
  19   2.0000     -10.252545      -278.9859
  20   2.0000     -10.252543      -278.9859
  21   2.0000     -10.252095      -278.9737
  22   2.0000     -10.252094      -278.9737
  23   2.0000     -10.251567      -278.9593
  24   2.0000     -10.251566      -278.9593
  25   2.0000     -10.249792      -278.9110
  26   2.0000     -10.249646      -278.9070
  27   2.0000     -10.247887      -278.8592
  28   2.0000     -10.247812      -278.8572
  29   2.0000     -10.247607      -278.8516
  30   2.0000     -10.247563      -278.8504
  31   2.0000     -10.247305      -278.8434
  32   2.0000     -10.247281      -278.8427
  33   2.0000     -10.246933      -278.8332
  34   2.0000     -10.246902      -278.8324
  35   2.0000     -10.240771      -278.6656
  36   2.0000     -10.240771      -278.6655
  37   2.0000     -10.240638      -278.6619
  38   2.0000     -10.240638      -278.6619
  39   2.0000     -10.240412      -278.6558
  40   2.0000     -10.240411      -278.6557
  41   2.0000     -10.240358      -278.6543
  42   2.0000     -10.240357      -278.6543
  43   2.0000     -10.239645      -278.6349
  44   2.0000     -10.239644      -278.6349
  45   2.0000     -10.239431      -278.6291
  46   2.0000     -10.239430      -278.6291
  47   2.0000     -10.239173      -278.6221
  48   2.0000     -10.239172      -278.6220
  49   2.0000     -10.239160      -278.6217
  50   2.0000     -10.239159      -278.6217
  51   2.0000     -10.237521      -278.5771
  52   2.0000     -10.237491      -278.5763
  53   2.0000     -10.233227      -278.4603
  54   2.0000     -10.233226      -278.4602
  55   2.0000     -10.233211      -278.4598
  56   2.0000     -10.233210      -278.4598
  57   2.0000      -1.023688       -27.8560
  58   2.0000      -1.023686       -27.8559
  59   2.0000      -0.922679       -25.1074
  60   2.0000      -0.899912       -24.4879
  61   2.0000      -0.899738       -24.4831
  62   2.0000      -0.881806       -23.9952
  63   2.0000      -0.871238       -23.7076
  64   2.0000      -0.869596       -23.6629
  65   2.0000      -0.869595       -23.6629
  66   2.0000      -0.869457       -23.6591
  67   2.0000      -0.853369       -23.2214
  68   2.0000      -0.827613       -22.5205
  69   2.0000      -0.826346       -22.4860
  70   2.0000      -0.812680       -22.1141
  71   2.0000      -0.802563       -21.8388
  72   2.0000      -0.790879       -21.5209
  73   2.0000      -0.782192       -21.2845
  74   2.0000      -0.782010       -21.2796
  75   2.0000      -0.777238       -21.1497
  76   2.0000      -0.769188       -20.9307
  77   2.0000      -0.769065       -20.9273
  78   2.0000      -0.768613       -20.9150
  79   2.0000      -0.762368       -20.7451
  80   2.0000      -0.755196       -20.5499
  81   2.0000      -0.748572       -20.3697
  82   2.0000      -0.736022       -20.0282
  83   2.0000      -0.736017       -20.0281
  84   2.0000      -0.729808       -19.8591
  85   2.0000      -0.711163       -19.3517
  86   2.0000      -0.708698       -19.2847
  87   2.0000      -0.689188       -18.7538
  88   2.0000      -0.670573       -18.2472
  89   2.0000      -0.668711       -18.1966
  90   2.0000      -0.652009       -17.7421
  91   2.0000      -0.648993       -17.6600
  92   2.0000      -0.646309       -17.5870
  93   2.0000      -0.640452       -17.4276
  94   2.0000      -0.630878       -17.1671
  95   2.0000      -0.622718       -16.9450
  96   2.0000      -0.621572       -16.9138
  97   2.0000      -0.616219       -16.7682
  98   2.0000      -0.609430       -16.5834
  99   2.0000      -0.601737       -16.3741
 100   2.0000      -0.597368       -16.2552
 101   2.0000      -0.592047       -16.1104
 102   2.0000      -0.591938       -16.1074
 103   2.0000      -0.586608       -15.9624
 104   2.0000      -0.578505       -15.7419
 105   2.0000      -0.565954       -15.4004
 106   2.0000      -0.559022       -15.2118
 107   2.0000      -0.558692       -15.2028
 108   2.0000      -0.536944       -14.6110
 109   2.0000      -0.535636       -14.5754
 110   2.0000      -0.533868       -14.5273
 111   2.0000      -0.529455       -14.4072
 112   2.0000      -0.525874       -14.3098
 113   2.0000      -0.520160       -14.1543
 114   2.0000      -0.516236       -14.0475
 115   2.0000      -0.506052       -13.7704
 116   2.0000      -0.504780       -13.7358
 117   2.0000      -0.489003       -13.3064
 118   2.0000      -0.485471       -13.2103
 119   2.0000      -0.481453       -13.1010
 120   2.0000      -0.481067       -13.0905
 121   2.0000      -0.471398       -12.8274
 122   2.0000      -0.471118       -12.8198
 123   2.0000      -0.468062       -12.7366
 124   2.0000      -0.467388       -12.7183
 125   2.0000      -0.466789       -12.7020
 126   2.0000      -0.464493       -12.6395
 127   2.0000      -0.458040       -12.4639
 128   2.0000      -0.457983       -12.4624
 129   2.0000      -0.455673       -12.3995
 130   2.0000      -0.455093       -12.3837
 131   2.0000      -0.451359       -12.2821
 132   2.0000      -0.451012       -12.2727
 133   2.0000      -0.450794       -12.2667
 134   2.0000      -0.449602       -12.2343
 135   2.0000      -0.449526       -12.2322
 136   2.0000      -0.444900       -12.1064
 137   2.0000      -0.442633       -12.0447
 138   2.0000      -0.442469       -12.0402
 139   2.0000      -0.441807       -12.0222
 140   2.0000      -0.438311       -11.9270
 141   2.0000      -0.434645       -11.8273
 142   2.0000      -0.431498       -11.7417
 143   2.0000      -0.431176       -11.7329
 144   2.0000      -0.415209       -11.2984
 145   2.0000      -0.412829       -11.2336
 146   2.0000      -0.411637       -11.2012
 147   2.0000      -0.407484       -11.0882
 148   2.0000      -0.405721       -11.0402
 149   2.0000      -0.402635       -10.9563
 150   2.0000      -0.399652       -10.8751
 151   2.0000      -0.395702       -10.7676
 152   2.0000      -0.390982       -10.6392
 153   2.0000      -0.390244       -10.6191
 154   2.0000      -0.387799       -10.5525
 155   2.0000      -0.380303       -10.3486
 156   2.0000      -0.380076       -10.3424
 157   2.0000      -0.379126       -10.3166
 158   2.0000      -0.379119       -10.3164
 159   2.0000      -0.374366       -10.1870
 160   2.0000      -0.374355       -10.1867
 161   2.0000      -0.370697       -10.0872
 162   2.0000      -0.370034       -10.0691
 163   2.0000      -0.367301        -9.9948
 164   2.0000      -0.365049        -9.9335
 165   2.0000      -0.364641        -9.9224
 166   2.0000      -0.357034        -9.7154
 167   2.0000      -0.356412        -9.6985
 168   2.0000      -0.351673        -9.5695
 169   2.0000      -0.351669        -9.5694
 170   2.0000      -0.350973        -9.5505
 171   2.0000      -0.348401        -9.4805
 172   2.0000      -0.340213        -9.2577
 173   2.0000      -0.337192        -9.1755
 174   2.0000      -0.335980        -9.1425
 175   2.0000      -0.323684        -8.8079
 176   2.0000      -0.304133        -8.2759
 177   2.0000      -0.299008        -8.1364
 178   2.0000      -0.297163        -8.0862
 179   2.0000      -0.284204        -7.7336
 180   2.0000      -0.284132        -7.7316
 181   2.0000      -0.276820        -7.5327
 182   2.0000      -0.271680        -7.3928
 183   2.0000      -0.270626        -7.3641
 184   2.0000      -0.270615        -7.3638
 185   2.0000      -0.270022        -7.3477
 186   2.0000      -0.238903        -6.5009
 187   2.0000      -0.231152        -6.2900
 188   2.0000      -0.231152        -6.2900
 189   2.0000      -0.223359        -6.0779
 190   2.0000      -0.210857        -5.7377
 191   2.0000      -0.197280        -5.3683
 192   0.0000      -0.087141        -2.3712
 193   0.0000      -0.061894        -1.6842
 194   0.0000      -0.033259        -0.9050
 195   0.0000      -0.033258        -0.9050
 196   0.0000      -0.021257        -0.5784

Total SCF time: 0 days 0 hours 2 min 1 sec

-----------------------------------------------------------------------------
         ABSORPTION SPECTRUM VIA TRANSITION ELECTRIC DIPOLE MOMENTS
-----------------------------------------------------------------------------
State   Energy    Wavelength  fosc         T2        TX        TY        TZ
        (cm-1)      (nm)                 (au**2)    (au)      (au)      (au)
-----------------------------------------------------------------------------
   1   21349.0    468.4   3.219258348  49.64256  -7.04575   0.00098   0.00061
   2   24336.0    410.9   0.029126982   0.39402   0.00001   0.56712  -0.26908
   3   27015.2    370.2   0.069910721   0.85195  -0.00049   0.83250  -0.39861
   4   27211.8    367.5   0.363778823   4.40105   2.09787  -0.00011  -0.00046
   5   28509.7    350.8   0.000179044   0.00207   0.00013   0.03934   0.02280
   6   14040.4    712.2   spin forbidden (mult=3)
   7   16706.6    598.6   spin forbidden (mult=3)
   8   23542.3    424.8   spin forbidden (mult=3)
   9   24153.3    414.0   spin forbidden (mult=3)
  10   25990.1    384.8   spin forbidden (mult=3)

Dispersion correction           -0.130685792
FINAL SINGLE POINT ENERGY     -2225.400145424811

DIPOLE MOMENT
-------------
                                X             Y             Z
Electronic contribution:     -0.00433      -3.02615       1.83654
Nuclear contribution   :      0.00033       3.04288      -1.85209
                        -----------------------------------------
Total Dipole Moment    :     -0.00400       0.01673      -0.01555
                        -----------------------------------------
Magnitude (a.u.)       :      0.02319
Magnitude (Debye)      :      0.05895

Rotational constants in cm-1:     0.005189     0.000248     0.000240
Rotational constants in MHz :   155.576316     7.425674     7.210004

                             ****ORCA TERMINATED NORMALLY****
TOTAL RUN TIME: 0 days 0 hours 34 minutes 17 seconds 881 msec
