                         Program Version 5.0.3 -  RELEASE  -
|  1> ! PBE0 def2-SVP D3BJ def2/J RIJCOSX tightSCF noautostart miniprint nopop defgrid3 Opt
|  2> %maxcore    4000
|  3> %pal    nprocs  40  end
|  4> %geom	Convergence	loose
|  5> 	MaxIter	5
|  6> end
|  7> %tddft  PrintLevel  3
|  8> 	IRootMult	Triplet
|  9> 	NRoots	5
| 10> 	IRoot	3
| 11> 	TDA	True
| 12>         MaxDim  10
| 13> end
| 14> * xyzfile 0 1 T1_XTB_OPT_XYZ.xyz
| 15>
| 16>
| 17>                          ****END OF INPUT****
Dispersion correction           -0.131430505
FINAL SINGLE POINT ENERGY     -2225.358929222805
Dispersion correction                    ... done
Dispersion correction           -0.130713783
FINAL SINGLE POINT ENERGY     -2225.371061858757
Dispersion correction                    ... done
Dispersion correction           -0.130573065
FINAL SINGLE POINT ENERGY     -2225.371885017051
Dispersion correction                    ... done
Dispersion correction           -0.130556056
FINAL SINGLE POINT ENERGY     -2225.372045224688
Dispersion correction                    ... done
                    ***********************HURRAY********************

CARTESIAN COORDINATES (ANGSTROEM)
---------------------------------
  C      0.000208    0.064880   -1.555692
  C     -0.000136   -0.091146   -0.031067
  C     -0.000368    1.280681    0.652291
  C     -1.177869   -0.936085    0.434039
  C     -2.522305   -0.679614    0.298398
  C     -3.480294   -1.598243    0.807375
  C     -4.910878   -1.388409    0.704492
  C     -5.546319   -0.332271    0.124768
  C     -6.973917   -0.130866    0.037391
  C     -7.928661   -1.033004    0.580374
  C     -9.285085   -0.797019    0.478102
  C     -9.763417    0.352065   -0.178041
  N    -11.145914    0.590809   -0.283082
  C    -11.796948    1.755503    0.100432
  C    -11.271038    2.904091    0.698654
  C    -12.156417    3.933500    1.004269
  C    -13.528782    3.822283    0.734773
  C    -14.050613    2.664711    0.158718
  C    -13.183854    1.620169   -0.160493
  C    -13.370032    0.299396   -0.726054
  C    -14.480365   -0.403024   -1.193048
  C    -14.298286   -1.682845   -1.715416
  C    -13.018531   -2.253623   -1.785224
  C    -11.894110   -1.572325   -1.328666
  C    -12.085995   -0.298655   -0.785984
  C     -8.837679    1.260537   -0.727878
  C     -7.481453    1.019292   -0.615521
  C     -3.004132   -2.769561    1.447192
  C     -1.654509   -3.038351    1.589019
  C     -0.717507   -2.116534    1.080672
  C      0.716951   -2.116467    1.080978
  C      1.653817   -3.038113    1.589885
  C      3.003476   -2.769170    1.448695
  C      3.479803   -1.597886    0.808940
  C      4.910413   -1.388069    0.706367
  C      5.546039   -0.333761    0.123525
  C      6.973665   -0.132321    0.036626
  C      7.481569    1.013892   -0.622903
  C      8.837855    1.254661   -0.735588
  C      9.763273    0.349762   -0.179359
  N     11.145822    0.587952   -0.284858
  C     11.796566    1.754980    0.092023
  C     11.270183    2.907332    0.682529
  C     12.155350    3.938570    0.982543
  C     13.527967    3.825573    0.715073
  C     14.050250    2.664380    0.146775
  C     13.183710    1.617929   -0.166722
  C     13.370347    0.293643   -0.723858
  C     14.481074   -0.411724   -1.185439
  C     14.299402   -1.694751   -1.700028
  C     13.019673   -2.265878   -1.767484
  C     11.894870   -1.581692   -1.316224
  C     12.086330   -0.304687   -0.781277
  C      9.284557   -0.795170    0.483735
  C      7.928083   -1.030692    0.586387
  C      2.521950   -0.679292    0.299646
  C      1.177479   -0.935969    0.434555
  H      0.891379    0.618792   -1.889829
  H     -0.890796    0.618813   -1.890240
  H      0.000312   -0.917408   -2.049974
  H     -0.891358    1.859405    0.362703
  H      0.890718    1.859489    0.363171
  H     -0.000648    1.173071    1.746658
  H     -2.857499    0.233161   -0.199812
  H     -5.520692   -2.180224    1.151181
  H     -4.941549    0.459459   -0.328289
  H     -7.590430   -1.926357    1.107796
  H     -9.998096   -1.489926    0.929962
  H    -10.207410    2.986364    0.926586
  H    -11.772701    4.843857    1.470478
  H    -14.195413    4.649261    0.988572
  H    -15.122125    2.574133   -0.034031
  H    -15.475789    0.045539   -1.155370
  H    -15.158949   -2.245681   -2.083077
  H    -12.898210   -3.251828   -2.212360
  H    -10.898486   -2.012373   -1.400359
  H     -9.200621    2.140015   -1.263419
  H     -6.774509    1.727924   -1.054894
  H     -3.738502   -3.478358    1.839651
  H     -1.321912   -3.950956    2.088713
  H      1.321086   -3.950692    2.089539
  H      3.737745   -3.477862    1.841532
  H      5.520104   -2.178465    1.155735
  H      4.941443    0.455986   -0.333212
  H      6.774893    1.719626   -1.067343
  H      9.201103    2.130838   -1.276311
  H     10.206346    2.991139    0.908924
  H     11.771249    4.851854    1.442670
  H     14.194416    4.654077    0.964333
  H     15.121937    2.572503   -0.044383
  H     15.476486    0.037017   -1.149609
  H     15.160371   -2.259911   -2.063382
  H     12.899684   -3.266710   -2.188524
  H     10.899290   -2.022135   -1.386097
  H      9.997283   -1.484986    0.940747
  H      7.589529   -1.920438    1.119669
  H      2.857285    0.233762   -0.197960

ORBITAL ENERGIES
----------------

  NO   OCC          E(Eh)            E(eV)
   0   2.0000     -14.448960      -393.1762
   1   2.0000     -14.448959      -393.1762
   2   2.0000     -10.293223      -280.0928
   3   2.0000     -10.293223      -280.0928
   4   2.0000     -10.276297      -279.6323
   5   2.0000     -10.276297      -279.6322
   6   2.0000     -10.276233      -279.6305
   7   2.0000     -10.276232      -279.6305
   8   2.0000     -10.264350      -279.3072
   9   2.0000     -10.260679      -279.2073
  10   2.0000     -10.260678      -279.2072
  11   2.0000     -10.257512      -279.1211
  12   2.0000     -10.257505      -279.1209
  13   2.0000     -10.253772      -279.0193
  14   2.0000     -10.253771      -279.0193
  15   2.0000     -10.253469      -279.0111
  16   2.0000     -10.253468      -279.0111
  17   2.0000     -10.253264      -279.0055
  18   2.0000     -10.253263      -279.0055
  19   2.0000     -10.252960      -278.9972
  20   2.0000     -10.252960      -278.9972
  21   2.0000     -10.251714      -278.9633
  22   2.0000     -10.251713      -278.9633
  23   2.0000     -10.250730      -278.9365
  24   2.0000     -10.250640      -278.9341
  25   2.0000     -10.250639      -278.9341
  26   2.0000     -10.250522      -278.9309
  27   2.0000     -10.248986      -278.8891
  28   2.0000     -10.248892      -278.8865
  29   2.0000     -10.248713      -278.8817
  30   2.0000     -10.248680      -278.8808
  31   2.0000     -10.247504      -278.8488
  32   2.0000     -10.247500      -278.8486
  33   2.0000     -10.247471      -278.8479
  34   2.0000     -10.247454      -278.8474
  35   2.0000     -10.240448      -278.6567
  36   2.0000     -10.240447      -278.6567
  37   2.0000     -10.240315      -278.6531
  38   2.0000     -10.240315      -278.6531
  39   2.0000     -10.239825      -278.6398
  40   2.0000     -10.239824      -278.6398
  41   2.0000     -10.239754      -278.6379
  42   2.0000     -10.239753      -278.6379
  43   2.0000     -10.239296      -278.6254
  44   2.0000     -10.239295      -278.6254
  45   2.0000     -10.239087      -278.6197
  46   2.0000     -10.239087      -278.6197
  47   2.0000     -10.238704      -278.6093
  48   2.0000     -10.238703      -278.6093
  49   2.0000     -10.238682      -278.6087
  50   2.0000     -10.238681      -278.6087
  51   2.0000     -10.238039      -278.5912
  52   2.0000     -10.238026      -278.5908
  53   2.0000     -10.232826      -278.4493
  54   2.0000     -10.232825      -278.4493
  55   2.0000     -10.232797      -278.4486
  56   2.0000     -10.232797      -278.4486
  57   2.0000      -1.024146       -27.8684
  58   2.0000      -1.024145       -27.8684
  59   2.0000      -0.922899       -25.1134
  60   2.0000      -0.899969       -24.4894
  61   2.0000      -0.899790       -24.4845
  62   2.0000      -0.881410       -23.9844
  63   2.0000      -0.870831       -23.6965
  64   2.0000      -0.868998       -23.6466
  65   2.0000      -0.868868       -23.6431
  66   2.0000      -0.868865       -23.6430
  67   2.0000      -0.853539       -23.2260
  68   2.0000      -0.828249       -22.5378
  69   2.0000      -0.826761       -22.4973
  70   2.0000      -0.812538       -22.1103
  71   2.0000      -0.802731       -21.8434
  72   2.0000      -0.791410       -21.5354
  73   2.0000      -0.782147       -21.2833
  74   2.0000      -0.782000       -21.2793
  75   2.0000      -0.776260       -21.1231
  76   2.0000      -0.769858       -20.9489
  77   2.0000      -0.768715       -20.9178
  78   2.0000      -0.768547       -20.9132
  79   2.0000      -0.763492       -20.7757
  80   2.0000      -0.755965       -20.5708
  81   2.0000      -0.746779       -20.3209
  82   2.0000      -0.735992       -20.0274
  83   2.0000      -0.735987       -20.0272
  84   2.0000      -0.730538       -19.8790
  85   2.0000      -0.712803       -19.3964
  86   2.0000      -0.709220       -19.2989
  87   2.0000      -0.688199       -18.7269
  88   2.0000      -0.670762       -18.2524
  89   2.0000      -0.668978       -18.2038
  90   2.0000      -0.652564       -17.7572
  91   2.0000      -0.648440       -17.6450
  92   2.0000      -0.646334       -17.5876
  93   2.0000      -0.639520       -17.4022
  94   2.0000      -0.631832       -17.1930
  95   2.0000      -0.622920       -16.9505
  96   2.0000      -0.622122       -16.9288
  97   2.0000      -0.615384       -16.7455
  98   2.0000      -0.608935       -16.5700
  99   2.0000      -0.601075       -16.3561
 100   2.0000      -0.597196       -16.2505
 101   2.0000      -0.591471       -16.0947
 102   2.0000      -0.591368       -16.0920
 103   2.0000      -0.586601       -15.9622
 104   2.0000      -0.578557       -15.7433
 105   2.0000      -0.566599       -15.4179
 106   2.0000      -0.558833       -15.2066
 107   2.0000      -0.558392       -15.1946
 108   2.0000      -0.536609       -14.6019
 109   2.0000      -0.535462       -14.5707
 110   2.0000      -0.534642       -14.5484
 111   2.0000      -0.529739       -14.4149
 112   2.0000      -0.525618       -14.3028
 113   2.0000      -0.520868       -14.1735
 114   2.0000      -0.516304       -14.0493
 115   2.0000      -0.506466       -13.7816
 116   2.0000      -0.505344       -13.7511
 117   2.0000      -0.489818       -13.3286
 118   2.0000      -0.486142       -13.2286
 119   2.0000      -0.480842       -13.0844
 120   2.0000      -0.480521       -13.0757
 121   2.0000      -0.470703       -12.8085
 122   2.0000      -0.470313       -12.7979
 123   2.0000      -0.468112       -12.7380
 124   2.0000      -0.468047       -12.7362
 125   2.0000      -0.467271       -12.7151
 126   2.0000      -0.464518       -12.6402
 127   2.0000      -0.458408       -12.4739
 128   2.0000      -0.457702       -12.4547
 129   2.0000      -0.455772       -12.4022
 130   2.0000      -0.454621       -12.3709
 131   2.0000      -0.451449       -12.2846
 132   2.0000      -0.451076       -12.2744
 133   2.0000      -0.450941       -12.2707
 134   2.0000      -0.449961       -12.2441
 135   2.0000      -0.449625       -12.2349
 136   2.0000      -0.445743       -12.1293
 137   2.0000      -0.442050       -12.0288
 138   2.0000      -0.441800       -12.0220
 139   2.0000      -0.441708       -12.0195
 140   2.0000      -0.438582       -11.9344
 141   2.0000      -0.435292       -11.8449
 142   2.0000      -0.431800       -11.7499
 143   2.0000      -0.431127       -11.7316
 144   2.0000      -0.415972       -11.3192
 145   2.0000      -0.413237       -11.2447
 146   2.0000      -0.411599       -11.2002
 147   2.0000      -0.407780       -11.0963
 148   2.0000      -0.406009       -11.0481
 149   2.0000      -0.403473       -10.9791
 150   2.0000      -0.399945       -10.8831
 151   2.0000      -0.396183       -10.7807
 152   2.0000      -0.389592       -10.6013
 153   2.0000      -0.388639       -10.5754
 154   2.0000      -0.387639       -10.5482
 155   2.0000      -0.379599       -10.3294
 156   2.0000      -0.379386       -10.3236
 157   2.0000      -0.378791       -10.3074
 158   2.0000      -0.378660       -10.3039
 159   2.0000      -0.374182       -10.1820
 160   2.0000      -0.373792       -10.1714
 161   2.0000      -0.371813       -10.1176
 162   2.0000      -0.368530       -10.0282
 163   2.0000      -0.367772       -10.0076
 164   2.0000      -0.366350        -9.9689
 165   2.0000      -0.365526        -9.9465
 166   2.0000      -0.356742        -9.7074
 167   2.0000      -0.356101        -9.6900
 168   2.0000      -0.351465        -9.5638
 169   2.0000      -0.350800        -9.5458
 170   2.0000      -0.350796        -9.5457
 171   2.0000      -0.348145        -9.4735
 172   2.0000      -0.340720        -9.2715
 173   2.0000      -0.337760        -9.1909
 174   2.0000      -0.335370        -9.1259
 175   2.0000      -0.324888        -8.8406
 176   2.0000      -0.304179        -8.2771
 177   2.0000      -0.298721        -8.1286
 178   2.0000      -0.297283        -8.0895
 179   2.0000      -0.284585        -7.7439
 180   2.0000      -0.284510        -7.7419
 181   2.0000      -0.276823        -7.5327
 182   2.0000      -0.271992        -7.4013
 183   2.0000      -0.271068        -7.3761
 184   2.0000      -0.269676        -7.3382
 185   2.0000      -0.269668        -7.3380
 186   2.0000      -0.241671        -6.5762
 187   2.0000      -0.231107        -6.2887
 188   2.0000      -0.231107        -6.2887
 189   2.0000      -0.222064        -6.0427
 190   2.0000      -0.211760        -5.7623
 191   2.0000      -0.199913        -5.4399
 192   0.0000      -0.085628        -2.3300
 193   0.0000      -0.058739        -1.5984
 194   0.0000      -0.032540        -0.8855
 195   0.0000      -0.032538        -0.8854
 196   0.0000      -0.022091        -0.6011

Total SCF time: 0 days 0 hours 2 min 14 sec

-----------------------------------------------------------------------------
         ABSORPTION SPECTRUM VIA TRANSITION ELECTRIC DIPOLE MOMENTS
-----------------------------------------------------------------------------
State   Energy    Wavelength  fosc         T2        TX        TY        TZ
        (cm-1)      (nm)                 (au**2)    (au)      (au)      (au)
-----------------------------------------------------------------------------
   1   22039.1    453.7   3.056386893  45.65514   6.75686  -0.00121  -0.00040
   2   24772.4    403.7   0.029038006   0.38590  -0.00044  -0.55822   0.27257
   3   27273.2    366.7   0.479868218   5.79244  -2.40675   0.00079  -0.00006
   4   27920.1    358.2   0.046991460   0.55409   0.00030  -0.66798   0.32847
   5   28889.3    346.1   0.000040786   0.00046   0.00286   0.01833   0.01098
   6   15050.2    664.4   spin forbidden (mult=3)
   7   18222.9    548.8   spin forbidden (mult=3)
   8   23690.4    422.1   spin forbidden (mult=3)
   9   24730.7    404.4   spin forbidden (mult=3)
  10   26559.4    376.5   spin forbidden (mult=3)

Dispersion correction           -0.130563968
FINAL SINGLE POINT ENERGY     -2225.372077464829

DIPOLE MOMENT
-------------
                                X             Y             Z
Electronic contribution:     -0.00419      -2.50065       1.60737
Nuclear contribution   :      0.00025       3.17811      -1.93720
                        -----------------------------------------
Total Dipole Moment    :     -0.00394       0.67746      -0.32983
                        -----------------------------------------
Magnitude (a.u.)       :      0.75350
Magnitude (Debye)      :      1.91523

Rotational constants in cm-1:     0.005314     0.000246     0.000239
Rotational constants in MHz :   159.314582     7.372362     7.170179

                             ****ORCA TERMINATED NORMALLY****
TOTAL RUN TIME: 0 days 0 hours 35 minutes 21 seconds 343 msec
