                         Program Version 5.0.3 -  RELEASE  -
|  1> ! PBE0 def2-SVP D3BJ def2/J RIJCOSX tightSCF noautostart miniprint nopop defgrid3 Opt
|  2> %maxcore    4000
|  3> %pal    nprocs  40  end
|  4> %geom	Convergence	loose
|  5> 	MaxIter	5
|  6> end
|  7> %tddft  PrintLevel  3
|  8> 	IRootMult	Triplet
|  9> 	NRoots	5
| 10> 	IRoot	4
| 11> 	TDA	True
| 12>         MaxDim  10
| 13> end
| 14> * xyzfile 0 1 T1_XTB_OPT_XYZ.xyz
| 15>
| 16>
| 17>                          ****END OF INPUT****

ORBITAL ENERGIES
----------------

  NO   OCC          E(Eh)            E(eV)
   0   2.0000     -14.449402      -393.1882
   1   2.0000     -14.449367      -393.1873
   2   2.0000     -10.289871      -280.0016
   3   2.0000     -10.289860      -280.0013
   4   2.0000     -10.273929      -279.5678
   5   2.0000     -10.273911      -279.5673
   6   2.0000     -10.273877      -279.5664
   7   2.0000     -10.273858      -279.5659
   8   2.0000     -10.260435      -279.2006
   9   2.0000     -10.254597      -279.0418
  10   2.0000     -10.254582      -279.0414
  11   2.0000     -10.252877      -278.9950
  12   2.0000     -10.252870      -278.9948
  13   2.0000     -10.249239      -278.8960
  14   2.0000     -10.249223      -278.8955
  15   2.0000     -10.248769      -278.8832
  16   2.0000     -10.248766      -278.8831
  17   2.0000     -10.248663      -278.8803
  18   2.0000     -10.248648      -278.8799
  19   2.0000     -10.248112      -278.8653
  20   2.0000     -10.248107      -278.8652
  21   2.0000     -10.246723      -278.8275
  22   2.0000     -10.246719      -278.8274
  23   2.0000     -10.246645      -278.8254
  24   2.0000     -10.246342      -278.8172
  25   2.0000     -10.246141      -278.8117
  26   2.0000     -10.246136      -278.8115
  27   2.0000     -10.244739      -278.7735
  28   2.0000     -10.244715      -278.7729
  29   2.0000     -10.244069      -278.7553
  30   2.0000     -10.243976      -278.7527
  31   2.0000     -10.243154      -278.7304
  32   2.0000     -10.243141      -278.7300
  33   2.0000     -10.242773      -278.7200
  34   2.0000     -10.242759      -278.7196
  35   2.0000     -10.236675      -278.5541
  36   2.0000     -10.236660      -278.5537
  37   2.0000     -10.236570      -278.5512
  38   2.0000     -10.236555      -278.5508
  39   2.0000     -10.236401      -278.5466
  40   2.0000     -10.236380      -278.5461
  41   2.0000     -10.236360      -278.5455
  42   2.0000     -10.236345      -278.5451
  43   2.0000     -10.236087      -278.5381
  44   2.0000     -10.236071      -278.5377
  45   2.0000     -10.235883      -278.5325
  46   2.0000     -10.235868      -278.5321
  47   2.0000     -10.234699      -278.5003
  48   2.0000     -10.234693      -278.5001
  49   2.0000     -10.234682      -278.4999
  50   2.0000     -10.234678      -278.4997
  51   2.0000     -10.233481      -278.4672
  52   2.0000     -10.233443      -278.4662
  53   2.0000     -10.228768      -278.3389
  54   2.0000     -10.228761      -278.3387
  55   2.0000     -10.228750      -278.3384
  56   2.0000     -10.228745      -278.3383
  57   2.0000      -1.029967       -28.0268
  58   2.0000      -1.029956       -28.0265
  59   2.0000      -0.925632       -25.1877
  60   2.0000      -0.904325       -24.6079
  61   2.0000      -0.904157       -24.6034
  62   2.0000      -0.884181       -24.0598
  63   2.0000      -0.875376       -23.8202
  64   2.0000      -0.873580       -23.7713
  65   2.0000      -0.873563       -23.7709
  66   2.0000      -0.873326       -23.7644
  67   2.0000      -0.856562       -23.3082
  68   2.0000      -0.831334       -22.6217
  69   2.0000      -0.829980       -22.5849
  70   2.0000      -0.816449       -22.2167
  71   2.0000      -0.805885       -21.9293
  72   2.0000      -0.793941       -21.6042
  73   2.0000      -0.785486       -21.3742
  74   2.0000      -0.785349       -21.3704
  75   2.0000      -0.779969       -21.2240
  76   2.0000      -0.773751       -21.0548
  77   2.0000      -0.771920       -21.0050
  78   2.0000      -0.771761       -21.0007
  79   2.0000      -0.766153       -20.8481
  80   2.0000      -0.758757       -20.6468
  81   2.0000      -0.750403       -20.4195
  82   2.0000      -0.737965       -20.0810
  83   2.0000      -0.737947       -20.0806
  84   2.0000      -0.733800       -19.9677
  85   2.0000      -0.711998       -19.3745
  86   2.0000      -0.711965       -19.3736
  87   2.0000      -0.693051       -18.8589
  88   2.0000      -0.672353       -18.2956
  89   2.0000      -0.670851       -18.2548
  90   2.0000      -0.655592       -17.8396
  91   2.0000      -0.652214       -17.7477
  92   2.0000      -0.650240       -17.6939
  93   2.0000      -0.642753       -17.4902
  94   2.0000      -0.634030       -17.2528
  95   2.0000      -0.625162       -17.0115
  96   2.0000      -0.624138       -16.9837
  97   2.0000      -0.617405       -16.8004
  98   2.0000      -0.609924       -16.5969
  99   2.0000      -0.603940       -16.4340
 100   2.0000      -0.600096       -16.3294
 101   2.0000      -0.593782       -16.1576
 102   2.0000      -0.593595       -16.1525
 103   2.0000      -0.588962       -16.0265
 104   2.0000      -0.580620       -15.7995
 105   2.0000      -0.567915       -15.4537
 106   2.0000      -0.562860       -15.3162
 107   2.0000      -0.562400       -15.3037
 108   2.0000      -0.539976       -14.6935
 109   2.0000      -0.538457       -14.6522
 110   2.0000      -0.537066       -14.6143
 111   2.0000      -0.533301       -14.5119
 112   2.0000      -0.528746       -14.3879
 113   2.0000      -0.522880       -14.2283
 114   2.0000      -0.519049       -14.1240
 115   2.0000      -0.508391       -13.8340
 116   2.0000      -0.506641       -13.7864
 117   2.0000      -0.491055       -13.3623
 118   2.0000      -0.487811       -13.2740
 119   2.0000      -0.483850       -13.1662
 120   2.0000      -0.483237       -13.1495
 121   2.0000      -0.473536       -12.8856
 122   2.0000      -0.473232       -12.8773
 123   2.0000      -0.470402       -12.8003
 124   2.0000      -0.469472       -12.7750
 125   2.0000      -0.468747       -12.7553
 126   2.0000      -0.466619       -12.6974
 127   2.0000      -0.459991       -12.5170
 128   2.0000      -0.459929       -12.5153
 129   2.0000      -0.458601       -12.4792
 130   2.0000      -0.457938       -12.4611
 131   2.0000      -0.453990       -12.3537
 132   2.0000      -0.453500       -12.3404
 133   2.0000      -0.452915       -12.3244
 134   2.0000      -0.451993       -12.2994
 135   2.0000      -0.451752       -12.2928
 136   2.0000      -0.446892       -12.1605
 137   2.0000      -0.444191       -12.0870
 138   2.0000      -0.443720       -12.0742
 139   2.0000      -0.442819       -12.0497
 140   2.0000      -0.439965       -11.9720
 141   2.0000      -0.436684       -11.8828
 142   2.0000      -0.432882       -11.7793
 143   2.0000      -0.432082       -11.7575
 144   2.0000      -0.417793       -11.3687
 145   2.0000      -0.416194       -11.3252
 146   2.0000      -0.412545       -11.2259
 147   2.0000      -0.410265       -11.1639
 148   2.0000      -0.408773       -11.1233
 149   2.0000      -0.402475       -10.9519
 150   2.0000      -0.402032       -10.9398
 151   2.0000      -0.394781       -10.7425
 152   2.0000      -0.391250       -10.6464
 153   2.0000      -0.391192       -10.6449
 154   2.0000      -0.389626       -10.6023
 155   2.0000      -0.380990       -10.3673
 156   2.0000      -0.380763       -10.3611
 157   2.0000      -0.380146       -10.3443
 158   2.0000      -0.379926       -10.3383
 159   2.0000      -0.377875       -10.2825
 160   2.0000      -0.376017       -10.2319
 161   2.0000      -0.374987       -10.2039
 162   2.0000      -0.369663       -10.0590
 163   2.0000      -0.368717       -10.0333
 164   2.0000      -0.366595        -9.9755
 165   2.0000      -0.365498        -9.9457
 166   2.0000      -0.358337        -9.7509
 167   2.0000      -0.357469        -9.7272
 168   2.0000      -0.352072        -9.5804
 169   2.0000      -0.351549        -9.5661
 170   2.0000      -0.351532        -9.5657
 171   2.0000      -0.349929        -9.5221
 172   2.0000      -0.342497        -9.3198
 173   2.0000      -0.335787        -9.1372
 174   2.0000      -0.332851        -9.0573
 175   2.0000      -0.324816        -8.8387
 176   2.0000      -0.305139        -8.3033
 177   2.0000      -0.300478        -8.1764
 178   2.0000      -0.298377        -8.1193
 179   2.0000      -0.285007        -7.7554
 180   2.0000      -0.284961        -7.7542
 181   2.0000      -0.278946        -7.5905
 182   2.0000      -0.272960        -7.4276
 183   2.0000      -0.272739        -7.4216
 184   2.0000      -0.271762        -7.3950
 185   2.0000      -0.271743        -7.3945
 186   2.0000      -0.240052        -6.5321
 187   2.0000      -0.230864        -6.2821
 188   2.0000      -0.230850        -6.2817
 189   2.0000      -0.222324        -6.0498
 190   2.0000      -0.210571        -5.7299
 191   2.0000      -0.193019        -5.2523
 192   0.0000      -0.089190        -2.4270
 193   0.0000      -0.058456        -1.5907
 194   0.0000      -0.031530        -0.8580
 195   0.0000      -0.031512        -0.8575
 196   0.0000      -0.018127        -0.4933

Total SCF time: 0 days 0 hours 3 min 30 sec

Dispersion correction           -0.131430505
FINAL SINGLE POINT ENERGY     -2225.356843920094
Dispersion correction                    ... done
Dispersion correction           -0.130750077
FINAL SINGLE POINT ENERGY     -2225.367256952845
Dispersion correction                    ... done
Dispersion correction           -0.130571742
FINAL SINGLE POINT ENERGY     -2225.368204890260
Dispersion correction                    ... done
Dispersion correction           -0.130447507
FINAL SINGLE POINT ENERGY     -2225.368854431811
Dispersion correction                    ... done

CARTESIAN COORDINATES (ANGSTROEM)
---------------------------------
  C      0.000246   -0.013869   -1.563699
  C     -0.000061   -0.061471   -0.032883
  C     -0.000205    1.354266    0.551395
  C     -1.178844   -0.871720    0.490659
  C     -2.523106   -0.622041    0.333614
  C     -3.487797   -1.501111    0.903783
  C     -4.903554   -1.302399    0.785186
  C     -5.548930   -0.285850    0.129350
  C     -6.975755   -0.103296    0.032873
  C     -7.921253   -0.970999    0.637388
  C     -9.283673   -0.752453    0.526902
  C     -9.769075    0.338601   -0.206059
  N    -11.166533    0.558827   -0.320504
  C    -11.841761    1.677597    0.127710
  C    -11.334913    2.798510    0.795072
  C    -12.240105    3.793356    1.153269
  C    -13.608197    3.674756    0.863621
  C    -14.108508    2.544533    0.209105
  C    -13.224294    1.535838   -0.162428
  C    -13.373693    0.249133   -0.816810
  C    -14.454384   -0.452898   -1.342705
  C    -14.226628   -1.697888   -1.937859
  C    -12.931676   -2.233299   -2.016162
  C    -11.833426   -1.551223   -1.500449
  C    -12.072062   -0.312671   -0.893941
  C     -8.861481    1.210682   -0.821148
  C     -7.499318    0.992547   -0.694632
  C     -3.006646   -2.625559    1.626142
  C     -1.656581   -2.880693    1.786292
  C     -0.721229   -1.999995    1.216910
  C      0.720672   -1.999993    1.217171
  C      1.655823   -2.880682    1.786889
  C      3.005947   -2.625547    1.627227
  C      3.487351   -1.501043    0.905129
  C      4.903152   -1.302436    0.786807
  C      5.548712   -0.286010    0.130979
  C      6.975574   -0.103728    0.034436
  C      7.499314    0.991336   -0.694104
  C      8.861523    1.208848   -0.821220
  C      9.768975    0.336904   -0.205726
  N     11.166484    0.556297   -0.321097
  C     11.842608    1.674983    0.125963
  C     11.336775    2.796648    0.792822
  C     12.242734    3.791251    1.149760
  C     13.610585    3.671692    0.859374
  C     14.109877    2.540735    0.205344
  C     13.224879    1.532271   -0.164943
  C     13.373156    0.245060   -0.818599
  C     14.453096   -0.457852   -1.344856
  C     14.224238   -1.703047   -1.939164
  C     12.928941   -2.237812   -2.016230
  C     11.831425   -1.554851   -1.500131
  C     12.071164   -0.316068   -0.894531
  C      9.283388   -0.753196    0.528529
  C      7.920916   -0.971048    0.639739
  C      2.522858   -0.621893    0.334744
  C      1.178542   -0.871680    0.491131
  H      0.891268    0.514600   -1.938381
  H     -0.890670    0.514521   -1.938743
  H      0.000378   -1.028628   -1.987809
  H     -0.891091    1.912805    0.222854
  H      0.890754    1.912865    0.223153
  H     -0.000387    1.325107    1.650836
  H     -2.853862    0.254430   -0.229047
  H     -5.513429   -2.062807    1.284210
  H     -4.948719    0.474729   -0.378819
  H     -7.575199   -1.828411    1.216843
  H     -9.989037   -1.423009    1.023706
  H    -10.272066    2.882338    1.027379
  H    -11.875795    4.681421    1.674704
  H    -14.291477    4.474065    1.158705
  H    -15.176599    2.454415   -0.002669
  H    -15.464009   -0.037936   -1.295306
  H    -15.066592   -2.259662   -2.352249
  H    -12.778700   -3.203154   -2.494963
  H    -10.823924   -1.959916   -1.567824
  H     -9.234173    2.052565   -1.409210
  H     -6.802042    1.681278   -1.178903
  H     -3.739678   -3.306664    2.067761
  H     -1.326031   -3.756517    2.349910
  H      1.325068   -3.756496    2.350403
  H      3.738824   -3.306674    2.069067
  H      5.512887   -2.062872    1.285964
  H      4.948641    0.474605   -0.377304
  H      6.802154    1.679924   -1.178742
  H      9.234356    2.050119   -1.410072
  H     10.274111    2.881245    1.025690
  H     11.879219    4.679891    1.670772
  H     14.294482    4.470830    1.153490
  H     15.177788    2.449871   -0.007018
  H     15.462979   -0.043410   -1.298399
  H     15.063600   -2.265497   -2.353858
  H     12.775105   -3.207858   -2.494369
  H     10.821658   -1.963058   -1.566495
  H      9.988662   -1.423511    1.025791
  H      7.574694   -1.827503    1.220512
  H      2.853816    0.254756   -0.227519

-----------------------------------------------------------------------------
         ABSORPTION SPECTRUM VIA TRANSITION ELECTRIC DIPOLE MOMENTS
-----------------------------------------------------------------------------
State   Energy    Wavelength  fosc         T2        TX        TY        TZ
        (cm-1)      (nm)                 (au**2)    (au)      (au)      (au)
-----------------------------------------------------------------------------
   1   22012.9    454.3   2.741643925  41.00233   6.40331  -0.00076   0.00008
   2   24052.5    415.8   0.019230523   0.26321   0.00023  -0.44212   0.26027
   3   26024.0    384.3   0.762064257   9.64036  -3.10489  -0.00014  -0.00024
   4   27624.9    362.0   0.021010256   0.25038  -0.00021  -0.42987   0.25611
   5   27996.5    357.2   0.000008839   0.00010  -0.00104  -0.00940  -0.00380
   6   14781.4    676.5   spin forbidden (mult=3)
   7   18008.5    555.3   spin forbidden (mult=3)
   8   23554.2    424.6   spin forbidden (mult=3)
   9   24003.3    416.6   spin forbidden (mult=3)
  10   26020.4    384.3   spin forbidden (mult=3)

Dispersion correction           -0.130393135
FINAL SINGLE POINT ENERGY     -2225.369120641823
Dispersion correction                    ... done

DIPOLE MOMENT
-------------
                                X             Y             Z
Electronic contribution:     -0.00235      -1.16321       2.24276
Nuclear contribution   :      0.00028       2.99832      -2.28505
                        -----------------------------------------
Total Dipole Moment    :     -0.00206       1.83511      -0.04228
                        -----------------------------------------
Magnitude (a.u.)       :      1.83560
Magnitude (Debye)      :      4.66572

Rotational constants in cm-1:     0.005386     0.000245     0.000240
Rotational constants in MHz :   161.453270     7.344172     7.190553

                             ****ORCA TERMINATED NORMALLY****
TOTAL RUN TIME: 0 days 0 hours 39 minutes 38 seconds 764 msec
