                         Program Version 5.0.3 -  RELEASE  -
|  1> ! PBE0 def2-SVP D3BJ def2/J RIJCOSX tightSCF noautostart miniprint nopop defgrid3
|  2> ! EnGrad
|  3> %maxcore    4000
|  4> %pal    nprocs  8  end
|  5> %tddft  PrintLevel  3
|  6> 	IRootMult	Singlet
|  7> 	TDA	True
|  8> 	NRoots	5
|  9>         MaxDim  10
| 10> end
| 11> * xyzfile 0 1 orcaopt.xyz
| 12>
| 13>
| 14>                          ****END OF INPUT****

CARTESIAN COORDINATES (ANGSTROEM)
---------------------------------
  C      2.249683    2.148036   -0.758383
  C      2.893019    3.253178   -0.205304
  C      4.281008    3.347526    0.059252
  C      4.829873    4.550940    0.592926
  C      6.179280    4.642417    0.829466
  C      7.001904    3.545037    0.538896
  C      6.383769    2.393213    0.031571
  C      7.207772    1.194620   -0.279608
  C      8.466301    1.322475   -0.884547
  C      9.188114    0.173520   -1.169623
  C      8.649011   -1.062324   -0.835701
  C      7.394725   -1.089679   -0.217477
  C      6.743098   -2.366745    0.170824
  C      7.477285   -3.538585    0.415000
  C      6.789686   -4.694946    0.757322
  C      5.405710   -4.654250    0.857760
  C      4.756890   -3.432943    0.620791
  C      3.308982   -3.315922    0.752793
  C      2.657495   -2.135063    0.727952
  C      1.216959   -1.990639    0.836407
  C      0.670199   -0.762126    1.228981
  C     -0.699183   -0.573893    1.291409
  C     -1.561734   -1.618761    0.949176
  N     -2.956952   -1.440288    0.977244
  C     -3.833440   -1.828000   -0.023673
  C     -3.560620   -2.320622   -1.303479
  C     -4.639930   -2.626294   -2.117695
  C     -5.957573   -2.440394   -1.682197
  C     -6.226953   -1.928214   -0.417933
  C     -5.162410   -1.610428    0.414328
  C     -5.070733   -1.054760    1.745640
  C     -6.014837   -0.659271    2.679083
  C     -5.576720   -0.189095    3.917100
  C     -4.214200   -0.128509    4.220806
  C     -3.249463   -0.521202    3.299216
  C     -3.692183   -0.964894    2.054323
  C     -1.035517   -2.858109    0.563753
  C      0.332149   -3.036992    0.512445
  N      5.425026   -2.333348    0.280953
  N      6.702022    0.012167    0.042854
  N      5.089581    2.288759   -0.199922
  C      0.850583    2.049839   -0.977384
  C      0.272475    0.878887   -1.536926
  C     -1.090836    0.694477   -1.605129
  C     -1.970066    1.699653   -1.174454
  N     -3.371722    1.490535   -1.161619
  C     -4.201651    1.785939   -0.103903
  C     -3.881479    2.260063    1.175172
  C     -4.921642    2.508696    2.052004
  C     -6.256696    2.267270    1.694835
  C     -6.575344    1.758695    0.441644
  C     -5.548513    1.510639   -0.466395
  C     -5.503420    0.985157   -1.808992
  C     -6.470894    0.509133   -2.688444
  C     -6.078715    0.070973   -3.949989
  C     -4.736272    0.127755   -4.337057
  C     -3.750541    0.600307   -3.477655
  C     -4.141261    1.007539   -2.202981
  C     -1.431192    2.915987   -0.729224
  C     -0.069699    3.082697   -0.619055
  H      2.878001    1.292329   -1.021848
  H      2.309822    4.135388    0.052587
  H      4.167592    5.388000    0.802169
  H      6.607543    5.554441    1.241049
  H      8.068990    3.569495    0.734676
  H      8.848480    2.305105   -1.147439
  H     10.156122    0.236679   -1.662636
  H      9.180884   -1.979736   -1.071267
  H      8.561924   -3.538084    0.356032
  H      7.331024   -5.617976    0.955021
  H      4.834512   -5.539174    1.127804
  H      2.766136   -4.247550    0.910999
  H      3.251901   -1.219062    0.633651
  H      1.335137    0.073268    1.434343
  H     -1.101503    0.406562    1.520694
  H     -2.542016   -2.460191   -1.654790
  H     -4.457057   -3.002474   -3.120743
  H     -6.779605   -2.684244   -2.349946
  H     -7.250560   -1.763078   -0.091134
  H     -7.076219   -0.714914    2.448664
  H     -6.304662    0.127183    4.660319
  H     -3.898449    0.224944    5.199351
  H     -2.192881   -0.495011    3.548696
  H     -1.708845   -3.676963    0.322617
  H      0.727155   -3.996668    0.189974
  H      0.935436    0.078727   -1.858272
  H     -1.487561   -0.251796   -1.955701
  H     -2.851748    2.436991    1.466041
  H     -4.695919    2.885573    3.046239
  H     -7.045457    2.472095    2.415048
  H     -7.609415    1.557318    0.171056
  H     -7.516991    0.475566   -2.393125
  H     -6.822819   -0.307170   -4.646719
  H     -4.454084   -0.196996   -5.336065
  H     -2.712495    0.657673   -3.791570
  H     -2.101484    3.728436   -0.455792
  H      0.310359    4.026765   -0.239979

ORBITAL ENERGIES
----------------

  NO   OCC          E(Eh)            E(eV)
   0   2.0000     -14.445677      -393.0869
   1   2.0000     -14.440699      -392.9514
   2   2.0000     -14.384017      -391.4090
   3   2.0000     -14.382204      -391.3597
   4   2.0000     -14.378274      -391.2527
   5   2.0000     -10.291109      -280.0353
   6   2.0000     -10.283968      -279.8410
   7   2.0000     -10.280153      -279.7372
   8   2.0000     -10.277225      -279.6575
   9   2.0000     -10.276986      -279.6510
  10   2.0000     -10.276821      -279.6465
  11   2.0000     -10.276225      -279.6303
  12   2.0000     -10.274908      -279.5945
  13   2.0000     -10.268560      -279.4217
  14   2.0000     -10.268397      -279.4173
  15   2.0000     -10.267522      -279.3935
  16   2.0000     -10.266947      -279.3778
  17   2.0000     -10.260040      -279.1899
  18   2.0000     -10.258185      -279.1394
  19   2.0000     -10.257105      -279.1100
  20   2.0000     -10.254601      -279.0419
  21   2.0000     -10.251159      -278.9482
  22   2.0000     -10.250457      -278.9291
  23   2.0000     -10.250264      -278.9239
  24   2.0000     -10.249552      -278.9045
  25   2.0000     -10.249157      -278.8937
  26   2.0000     -10.248811      -278.8843
  27   2.0000     -10.248708      -278.8815
  28   2.0000     -10.247792      -278.8566
  29   2.0000     -10.247405      -278.8461
  30   2.0000     -10.247012      -278.8354
  31   2.0000     -10.246240      -278.8144
  32   2.0000     -10.246187      -278.8129
  33   2.0000     -10.244079      -278.7556
  34   2.0000     -10.243564      -278.7415
  35   2.0000     -10.243444      -278.7383
  36   2.0000     -10.242476      -278.7119
  37   2.0000     -10.241131      -278.6753
  38   2.0000     -10.237799      -278.5847
  39   2.0000     -10.234075      -278.4833
  40   2.0000     -10.232483      -278.4400
  41   2.0000     -10.232285      -278.4346
  42   2.0000     -10.232149      -278.4309
  43   2.0000     -10.231599      -278.4160
  44   2.0000     -10.231396      -278.4104
  45   2.0000     -10.230740      -278.3926
  46   2.0000     -10.230636      -278.3898
  47   2.0000     -10.230441      -278.3844
  48   2.0000     -10.230379      -278.3828
  49   2.0000     -10.230168      -278.3770
  50   2.0000     -10.229454      -278.3576
  51   2.0000     -10.229320      -278.3539
  52   2.0000     -10.229293      -278.3532
  53   2.0000     -10.229021      -278.3458
  54   2.0000     -10.228938      -278.3435
  55   2.0000     -10.228232      -278.3243
  56   2.0000     -10.225092      -278.2389
  57   2.0000     -10.224432      -278.2209
  58   2.0000     -10.223592      -278.1981
  59   2.0000     -10.222670      -278.1730
  60   2.0000      -1.021486       -27.7960
  61   2.0000      -1.016804       -27.6686
  62   2.0000      -0.986796       -26.8521
  63   2.0000      -0.971264       -26.4294
  64   2.0000      -0.956116       -26.0172
  65   2.0000      -0.897373       -24.4188
  66   2.0000      -0.893410       -24.3109
  67   2.0000      -0.866659       -23.5830
  68   2.0000      -0.864750       -23.5311
  69   2.0000      -0.861895       -23.4534
  70   2.0000      -0.859606       -23.3911
  71   2.0000      -0.839652       -22.8481
  72   2.0000      -0.830936       -22.6109
  73   2.0000      -0.830087       -22.5878
  74   2.0000      -0.825584       -22.4653
  75   2.0000      -0.820045       -22.3145
  76   2.0000      -0.813710       -22.1422
  77   2.0000      -0.806238       -21.9388
  78   2.0000      -0.791412       -21.5354
  79   2.0000      -0.784278       -21.3413
  80   2.0000      -0.779404       -21.2087
  81   2.0000      -0.775365       -21.0987
  82   2.0000      -0.769564       -20.9409
  83   2.0000      -0.763567       -20.7777
  84   2.0000      -0.760137       -20.6844
  85   2.0000      -0.754402       -20.5283
  86   2.0000      -0.745516       -20.2865
  87   2.0000      -0.729712       -19.8565
  88   2.0000      -0.728308       -19.8183
  89   2.0000      -0.725921       -19.7533
  90   2.0000      -0.718742       -19.5580
  91   2.0000      -0.686828       -18.6895
  92   2.0000      -0.679289       -18.4844
  93   2.0000      -0.675508       -18.3815
  94   2.0000      -0.669649       -18.2221
  95   2.0000      -0.650691       -17.7062
  96   2.0000      -0.647622       -17.6227
  97   2.0000      -0.642995       -17.4968
  98   2.0000      -0.640332       -17.4243
  99   2.0000      -0.629739       -17.1361
 100   2.0000      -0.628031       -17.0896
 101   2.0000      -0.622749       -16.9459
 102   2.0000      -0.616900       -16.7867
 103   2.0000      -0.614293       -16.7158
 104   2.0000      -0.611285       -16.6339
 105   2.0000      -0.597064       -16.2469
 106   2.0000      -0.592062       -16.1108
 107   2.0000      -0.585984       -15.9454
 108   2.0000      -0.583158       -15.8685
 109   2.0000      -0.581266       -15.8171
 110   2.0000      -0.574486       -15.6326
 111   2.0000      -0.555102       -15.1051
 112   2.0000      -0.553288       -15.0557
 113   2.0000      -0.551940       -15.0190
 114   2.0000      -0.536049       -14.5866
 115   2.0000      -0.530964       -14.4483
 116   2.0000      -0.529318       -14.4035
 117   2.0000      -0.525955       -14.3120
 118   2.0000      -0.523165       -14.2360
 119   2.0000      -0.517104       -14.0711
 120   2.0000      -0.515261       -14.0210
 121   2.0000      -0.511237       -13.9115
 122   2.0000      -0.505395       -13.7525
 123   2.0000      -0.502385       -13.6706
 124   2.0000      -0.495718       -13.4892
 125   2.0000      -0.491540       -13.3755
 126   2.0000      -0.481588       -13.1047
 127   2.0000      -0.477918       -13.0048
 128   2.0000      -0.474820       -12.9205
 129   2.0000      -0.472582       -12.8596
 130   2.0000      -0.470211       -12.7951
 131   2.0000      -0.465312       -12.6618
 132   2.0000      -0.463305       -12.6072
 133   2.0000      -0.461736       -12.5645
 134   2.0000      -0.458821       -12.4851
 135   2.0000      -0.456045       -12.4096
 136   2.0000      -0.450174       -12.2499
 137   2.0000      -0.447942       -12.1891
 138   2.0000      -0.446364       -12.1462
 139   2.0000      -0.445215       -12.1149
 140   2.0000      -0.443436       -12.0665
 141   2.0000      -0.443083       -12.0569
 142   2.0000      -0.441894       -12.0245
 143   2.0000      -0.440525       -11.9873
 144   2.0000      -0.435278       -11.8445
 145   2.0000      -0.434540       -11.8244
 146   2.0000      -0.434075       -11.8118
 147   2.0000      -0.429820       -11.6960
 148   2.0000      -0.428043       -11.6476
 149   2.0000      -0.426183       -11.5970
 150   2.0000      -0.425347       -11.5743
 151   2.0000      -0.422873       -11.5070
 152   2.0000      -0.418267       -11.3816
 153   2.0000      -0.417594       -11.3633
 154   2.0000      -0.410437       -11.1686
 155   2.0000      -0.407477       -11.0880
 156   2.0000      -0.402273       -10.9464
 157   2.0000      -0.401330       -10.9207
 158   2.0000      -0.399155       -10.8616
 159   2.0000      -0.396656       -10.7936
 160   2.0000      -0.390134       -10.6161
 161   2.0000      -0.388074       -10.5600
 162   2.0000      -0.382126       -10.3982
 163   2.0000      -0.380504       -10.3541
 164   2.0000      -0.373519       -10.1640
 165   2.0000      -0.373080       -10.1520
 166   2.0000      -0.372004       -10.1228
 167   2.0000      -0.371838       -10.1182
 168   2.0000      -0.366493        -9.9728
 169   2.0000      -0.363477        -9.8907
 170   2.0000      -0.357658        -9.7324
 171   2.0000      -0.354237        -9.6393
 172   2.0000      -0.351462        -9.5638
 173   2.0000      -0.347497        -9.4559
 174   2.0000      -0.346558        -9.4303
 175   2.0000      -0.343485        -9.3467
 176   2.0000      -0.342371        -9.3164
 177   2.0000      -0.337313        -9.1788
 178   2.0000      -0.335166        -9.1203
 179   2.0000      -0.321859        -8.7582
 180   2.0000      -0.315402        -8.5825
 181   2.0000      -0.313722        -8.5368
 182   2.0000      -0.302331        -8.2269
 183   2.0000      -0.299281        -8.1438
 184   2.0000      -0.295463        -8.0400
 185   2.0000      -0.287593        -7.8258
 186   2.0000      -0.283965        -7.7271
 187   2.0000      -0.278756        -7.5853
 188   2.0000      -0.274336        -7.4650
 189   2.0000      -0.269083        -7.3221
 190   2.0000      -0.266504        -7.2519
 191   2.0000      -0.266208        -7.2439
 192   2.0000      -0.260760        -7.0956
 193   2.0000      -0.255825        -6.9614
 194   2.0000      -0.247827        -6.7437
 195   2.0000      -0.233711        -6.3596
 196   2.0000      -0.227758        -6.1976
 197   2.0000      -0.224593        -6.1115
 198   2.0000      -0.219233        -5.9656
 199   2.0000      -0.208668        -5.6781
 200   2.0000      -0.194056        -5.2805
 201   0.0000      -0.078108        -2.1254
 202   0.0000      -0.061302        -1.6681
 203   0.0000      -0.050606        -1.3771
 204   0.0000      -0.043331        -1.1791
 205   0.0000      -0.032065        -0.8725

Total SCF time: 0 days 1 hours 22 min 23 sec

-----------------------------------------------------------------------------
         ABSORPTION SPECTRUM VIA TRANSITION ELECTRIC DIPOLE MOMENTS
-----------------------------------------------------------------------------
State   Energy    Wavelength  fosc         T2        TX        TY        TZ
        (cm-1)      (nm)                 (au**2)    (au)      (au)      (au)
-----------------------------------------------------------------------------
   1   21450.8    466.2   0.123211166   1.89096  -1.33498  -0.29763  -0.14215
   2   24672.4    405.3   0.073820630   0.98501  -0.77226  -0.56618  -0.26088
   3   25351.8    394.4   0.615479957   7.99246  -2.82289   0.10001  -0.11731
   4   26964.9    370.9   0.004376915   0.05344  -0.22354  -0.01239  -0.05755
   5   28030.9    356.7   0.091475147   1.07434  -1.02035   0.07851   0.16448

Dispersion correction           -0.162290557
FINAL SINGLE POINT ENERGY     -2387.523127454315
Dispersion correction                    ... done

DIPOLE MOMENT
-------------
                                X             Y             Z
Electronic contribution:      2.76245      -3.57217       0.50765
Nuclear contribution   :     -7.80661       0.00066       0.50807
                        -----------------------------------------
Total Dipole Moment    :     -5.04415      -3.57151       1.01571
                        -----------------------------------------
Magnitude (a.u.)       :      6.26345
Magnitude (Debye)      :     15.92043

Rotational constants in cm-1:     0.002734     0.000790     0.000724
Rotational constants in MHz :    81.968389    23.669124    21.694912

                             ****ORCA TERMINATED NORMALLY****
TOTAL RUN TIME: 0 days 3 hours 9 minutes 2 seconds 221 msec
