                         Program Version 5.0.3 -  RELEASE  -
|  1> ! PBE0 def2-SVP D3BJ def2/J RIJCOSX tightSCF noautostart miniprint nopop defgrid3
|  2> ! EnGrad
|  3> %maxcore    4000
|  4> %pal    nprocs  8  end
|  5> %tddft  PrintLevel  3
|  6> 	IRootMult	Singlet
|  7> 	TDA	True
|  8> 	NRoots	5
|  9>         MaxDim  10
| 10> end
| 11> * xyzfile 0 1 orcaopt.xyz
| 12>
| 13>
| 14>                          ****END OF INPUT****

CARTESIAN COORDINATES (ANGSTROEM)
---------------------------------
  C      2.334303    2.155282   -0.694735
  C      2.869261    3.232394   -0.085110
  C      4.278502    3.359714    0.201473
  C      4.801241    4.526753    0.795438
  C      6.164120    4.612884    1.030601
  C      6.986121    3.547659    0.672013
  C      6.382227    2.422791    0.095350
  C      7.176406    1.229274   -0.301727
  C      8.404083    1.352135   -0.962941
  C      9.050396    0.189727   -1.362894
  C      8.467315   -1.040207   -1.084808
  C      7.247657   -1.063264   -0.395453
  C      6.552689   -2.335154   -0.060805
  C      7.252957   -3.555004    0.031035
  C      6.530689   -4.719632    0.315536
  C      5.169097   -4.636667    0.511148
  C      4.545150   -3.359501    0.439724
  C      3.162248   -3.202793    0.689880
  C      2.543527   -1.936489    0.859351
  C      1.168551   -1.755802    1.104128
  C      0.660384   -0.538985    1.655786
  C     -0.685321   -0.354790    1.887671
  C     -1.605562   -1.374391    1.542141
  N     -2.992774   -1.230176    1.674726
  C     -3.872149   -1.585260    0.660930
  C     -3.578068   -1.934951   -0.649099
  C     -4.629996   -2.226055   -1.502078
  C     -5.957175   -2.153126   -1.064551
  C     -6.251812   -1.771236    0.240302
  C     -5.200621   -1.472240    1.111498
  C     -5.120222   -1.004528    2.474476
  C     -6.085237   -0.694026    3.426717
  C     -5.674108   -0.273484    4.685540
  C     -4.310643   -0.173478    4.993955
  C     -3.326925   -0.471508    4.056320
  C     -3.742072   -0.869257    2.788157
  C     -1.118466   -2.587533    1.015274
  C      0.221977   -2.779557    0.809778
  N      5.254125   -2.247780    0.146973
  N      6.631771    0.053472   -0.024964
  N      5.081851    2.341288   -0.124529
  C      0.940938    1.956340   -1.016154
  C      0.515305    0.785598   -1.677536
  C     -0.822858    0.532050   -1.953419
  C     -1.803041    1.455151   -1.554305
  N     -3.180407    1.242590   -1.716924
  C     -4.104022    1.514080   -0.712610
  C     -3.872520    1.867303    0.609923
  C     -4.964701    2.065631    1.439294
  C     -6.271714    1.893081    0.970302
  C     -6.503035    1.496962   -0.341265
  C     -5.410813    1.293770   -1.189305
  C     -5.269240    0.838725   -2.548793
  C     -6.193135    0.448009   -3.511978
  C     -5.734030    0.072358   -4.767854
  C     -4.363891    0.101576   -5.061688
  C     -3.420477    0.479994   -4.111032
  C     -3.880749    0.824795   -2.842529
  C     -1.387225    2.647843   -0.945970
  C     -0.057965    2.892346   -0.689601
  H      3.041318    1.370787   -0.956478
  H      2.238045    4.072466    0.201699
  H      4.130570    5.344922    1.053582
  H      6.591604    5.502611    1.492281
  H      8.056893    3.570180    0.862561
  H      8.818665    2.332940   -1.188564
  H      9.995169    0.241437   -1.903032
  H      8.941247   -1.962184   -1.414322
  H      8.331676   -3.592448   -0.099779
  H      7.042193   -5.678695    0.388310
  H      4.578002   -5.522942    0.736676
  H      2.586737   -4.121205    0.807160
  H      3.183711   -1.057655    0.824798
  H      1.361065    0.259305    1.897257
  H     -1.038305    0.593642    2.294518
  H     -2.550079   -1.944935   -0.982850
  H     -4.420875   -2.488054   -2.538213
  H     -6.756026   -2.362504   -1.775524
  H     -7.283874   -1.679348    0.574592
  H     -7.141380   -0.773996    3.168502
  H     -6.414182   -0.022580    5.443727
  H     -4.011475    0.144607    5.991764
  H     -2.271342   -0.403706    4.311184
  H     -1.824213   -3.383211    0.785493
  H      0.562798   -3.723379    0.390064
  H      1.269442    0.050002   -1.956041
  H     -1.111026   -0.408267   -2.428120
  H     -2.860286    1.950085    0.977227
  H     -4.800186    2.331431    2.482402
  H     -7.102043    2.035455    1.661010
  H     -7.516112    1.322346   -0.700013
  H     -7.254379    0.431211   -3.261327
  H     -6.440556   -0.242122   -5.534198
  H     -4.026104   -0.178998   -6.058371
  H     -2.361836    0.512877   -4.358973
  H     -2.135878    3.399221   -0.702971
  H      0.220561    3.837290   -0.229637

ORBITAL ENERGIES
----------------

  NO   OCC          E(Eh)            E(eV)
   0   2.0000     -14.445323      -393.0772
   1   2.0000     -14.443907      -393.0387
   2   2.0000     -14.381537      -391.3415
   3   2.0000     -14.381350      -391.3364
   4   2.0000     -14.378039      -391.2463
   5   2.0000     -10.289430      -279.9896
   6   2.0000     -10.289047      -279.9792
   7   2.0000     -10.277563      -279.6667
   8   2.0000     -10.277121      -279.6547
   9   2.0000     -10.276705      -279.6434
  10   2.0000     -10.276545      -279.6390
  11   2.0000     -10.275595      -279.6132
  12   2.0000     -10.275080      -279.5991
  13   2.0000     -10.271878      -279.5120
  14   2.0000     -10.271507      -279.5019
  15   2.0000     -10.266986      -279.3789
  16   2.0000     -10.265643      -279.3423
  17   2.0000     -10.260015      -279.1892
  18   2.0000     -10.258222      -279.1404
  19   2.0000     -10.256314      -279.0885
  20   2.0000     -10.250903      -278.9412
  21   2.0000     -10.250791      -278.9382
  22   2.0000     -10.249783      -278.9108
  23   2.0000     -10.249776      -278.9106
  24   2.0000     -10.248095      -278.8648
  25   2.0000     -10.248078      -278.8644
  26   2.0000     -10.247962      -278.8612
  27   2.0000     -10.247588      -278.8511
  28   2.0000     -10.247306      -278.8434
  29   2.0000     -10.246830      -278.8304
  30   2.0000     -10.246699      -278.8269
  31   2.0000     -10.246157      -278.8121
  32   2.0000     -10.245432      -278.7924
  33   2.0000     -10.245319      -278.7893
  34   2.0000     -10.244894      -278.7777
  35   2.0000     -10.244145      -278.7574
  36   2.0000     -10.243982      -278.7529
  37   2.0000     -10.240009      -278.6448
  38   2.0000     -10.239890      -278.6416
  39   2.0000     -10.236662      -278.5537
  40   2.0000     -10.235749      -278.5289
  41   2.0000     -10.235387      -278.5190
  42   2.0000     -10.234356      -278.4910
  43   2.0000     -10.234285      -278.4891
  44   2.0000     -10.234113      -278.4844
  45   2.0000     -10.234023      -278.4819
  46   2.0000     -10.233616      -278.4708
  47   2.0000     -10.233119      -278.4573
  48   2.0000     -10.232860      -278.4503
  49   2.0000     -10.232752      -278.4473
  50   2.0000     -10.230225      -278.3786
  51   2.0000     -10.230060      -278.3741
  52   2.0000     -10.229905      -278.3699
  53   2.0000     -10.229636      -278.3625
  54   2.0000     -10.229491      -278.3586
  55   2.0000     -10.228819      -278.3403
  56   2.0000     -10.228660      -278.3360
  57   2.0000     -10.228308      -278.3264
  58   2.0000     -10.225198      -278.2418
  59   2.0000     -10.224621      -278.2261
  60   2.0000      -1.020282       -27.7633
  61   2.0000      -1.019117       -27.7316
  62   2.0000      -0.986386       -26.8409
  63   2.0000      -0.970770       -26.4160
  64   2.0000      -0.955141       -25.9907
  65   2.0000      -0.896325       -24.3902
  66   2.0000      -0.893360       -24.3096
  67   2.0000      -0.867338       -23.6015
  68   2.0000      -0.866231       -23.5713
  69   2.0000      -0.864889       -23.5348
  70   2.0000      -0.862948       -23.4820
  71   2.0000      -0.839327       -22.8392
  72   2.0000      -0.829730       -22.5781
  73   2.0000      -0.829454       -22.5706
  74   2.0000      -0.824177       -22.4270
  75   2.0000      -0.818721       -22.2785
  76   2.0000      -0.814715       -22.1695
  77   2.0000      -0.805894       -21.9295
  78   2.0000      -0.793405       -21.5896
  79   2.0000      -0.783091       -21.3090
  80   2.0000      -0.777607       -21.1597
  81   2.0000      -0.776772       -21.1370
  82   2.0000      -0.770850       -20.9759
  83   2.0000      -0.764053       -20.7909
  84   2.0000      -0.762894       -20.7594
  85   2.0000      -0.754909       -20.5421
  86   2.0000      -0.746982       -20.3264
  87   2.0000      -0.731630       -19.9087
  88   2.0000      -0.728661       -19.8279
  89   2.0000      -0.726078       -19.7576
  90   2.0000      -0.718510       -19.5516
  91   2.0000      -0.685174       -18.6445
  92   2.0000      -0.679933       -18.5019
  93   2.0000      -0.676266       -18.4021
  94   2.0000      -0.670292       -18.2396
  95   2.0000      -0.650654       -17.7052
  96   2.0000      -0.648702       -17.6521
  97   2.0000      -0.642563       -17.4850
  98   2.0000      -0.639385       -17.3986
  99   2.0000      -0.630751       -17.1636
 100   2.0000      -0.627861       -17.0850
 101   2.0000      -0.622534       -16.9400
 102   2.0000      -0.615764       -16.7558
 103   2.0000      -0.615031       -16.7359
 104   2.0000      -0.611635       -16.6434
 105   2.0000      -0.596214       -16.2238
 106   2.0000      -0.594274       -16.1710
 107   2.0000      -0.586818       -15.9681
 108   2.0000      -0.586082       -15.9481
 109   2.0000      -0.579990       -15.7823
 110   2.0000      -0.575309       -15.6550
 111   2.0000      -0.555288       -15.1102
 112   2.0000      -0.554337       -15.0843
 113   2.0000      -0.552259       -15.0277
 114   2.0000      -0.535538       -14.5727
 115   2.0000      -0.531127       -14.4527
 116   2.0000      -0.530580       -14.4378
 117   2.0000      -0.525585       -14.3019
 118   2.0000      -0.523202       -14.2370
 119   2.0000      -0.517471       -14.0811
 120   2.0000      -0.515080       -14.0160
 121   2.0000      -0.511155       -13.9092
 122   2.0000      -0.504340       -13.7238
 123   2.0000      -0.503165       -13.6918
 124   2.0000      -0.495569       -13.4851
 125   2.0000      -0.491387       -13.3713
 126   2.0000      -0.481692       -13.1075
 127   2.0000      -0.478852       -13.0302
 128   2.0000      -0.474875       -12.9220
 129   2.0000      -0.473106       -12.8739
 130   2.0000      -0.469731       -12.7820
 131   2.0000      -0.466257       -12.6875
 132   2.0000      -0.465172       -12.6580
 133   2.0000      -0.462313       -12.5802
 134   2.0000      -0.458811       -12.4849
 135   2.0000      -0.456169       -12.4130
 136   2.0000      -0.449903       -12.2425
 137   2.0000      -0.448320       -12.1994
 138   2.0000      -0.446405       -12.1473
 139   2.0000      -0.445583       -12.1249
 140   2.0000      -0.444558       -12.0970
 141   2.0000      -0.443725       -12.0744
 142   2.0000      -0.440914       -11.9979
 143   2.0000      -0.440105       -11.9759
 144   2.0000      -0.436983       -11.8909
 145   2.0000      -0.436536       -11.8788
 146   2.0000      -0.434009       -11.8100
 147   2.0000      -0.429586       -11.6896
 148   2.0000      -0.428744       -11.6667
 149   2.0000      -0.428026       -11.6472
 150   2.0000      -0.425606       -11.5813
 151   2.0000      -0.422902       -11.5077
 152   2.0000      -0.419086       -11.4039
 153   2.0000      -0.416079       -11.3221
 154   2.0000      -0.409300       -11.1376
 155   2.0000      -0.405235       -11.0270
 156   2.0000      -0.402163       -10.9434
 157   2.0000      -0.400419       -10.8960
 158   2.0000      -0.398747       -10.8505
 159   2.0000      -0.395752       -10.7690
 160   2.0000      -0.391102       -10.6424
 161   2.0000      -0.386470       -10.5164
 162   2.0000      -0.380595       -10.3565
 163   2.0000      -0.376263       -10.2386
 164   2.0000      -0.375363       -10.2142
 165   2.0000      -0.374191       -10.1823
 166   2.0000      -0.372413       -10.1339
 167   2.0000      -0.371373       -10.1056
 168   2.0000      -0.368386       -10.0243
 169   2.0000      -0.367722       -10.0062
 170   2.0000      -0.360125        -9.7995
 171   2.0000      -0.355631        -9.6772
 172   2.0000      -0.353106        -9.6085
 173   2.0000      -0.349175        -9.5015
 174   2.0000      -0.348211        -9.4753
 175   2.0000      -0.346395        -9.4259
 176   2.0000      -0.344544        -9.3755
 177   2.0000      -0.339310        -9.2331
 178   2.0000      -0.333386        -9.0719
 179   2.0000      -0.325397        -8.8545
 180   2.0000      -0.315031        -8.5724
 181   2.0000      -0.312081        -8.4922
 182   2.0000      -0.301799        -8.2124
 183   2.0000      -0.297466        -8.0945
 184   2.0000      -0.293904        -7.9975
 185   2.0000      -0.286123        -7.7858
 186   2.0000      -0.280789        -7.6407
 187   2.0000      -0.279114        -7.5951
 188   2.0000      -0.275182        -7.4881
 189   2.0000      -0.268360        -7.3024
 190   2.0000      -0.266078        -7.2404
 191   2.0000      -0.264095        -7.1864
 192   2.0000      -0.261537        -7.1168
 193   2.0000      -0.260067        -7.0768
 194   2.0000      -0.255520        -6.9531
 195   2.0000      -0.234978        -6.3941
 196   2.0000      -0.233154        -6.3444
 197   2.0000      -0.225715        -6.1420
 198   2.0000      -0.213861        -5.8195
 199   2.0000      -0.204622        -5.5680
 200   2.0000      -0.200595        -5.4585
 201   0.0000      -0.074377        -2.0239
 202   0.0000      -0.067294        -1.8312
 203   0.0000      -0.049504        -1.3471
 204   0.0000      -0.043380        -1.1804
 205   0.0000      -0.030376        -0.8266

Total SCF time: 0 days 1 hours 15 min 11 sec

-----------------------------------------------------------------------------
         ABSORPTION SPECTRUM VIA TRANSITION ELECTRIC DIPOLE MOMENTS
-----------------------------------------------------------------------------
State   Energy    Wavelength  fosc         T2        TX        TY        TZ
        (cm-1)      (nm)                 (au**2)    (au)      (au)      (au)
-----------------------------------------------------------------------------
   1   24179.5    413.6   0.338873952   4.61387  -1.98263   0.65260   0.50711
   2   24465.0    408.7   0.056439552   0.75948  -0.82516   0.23312   0.15570
   3   24942.2    400.9   0.005646543   0.07453  -0.25063   0.05618   0.09249
   4   26383.8    379.0   0.957897166  11.95244  -3.41579  -0.35488  -0.39857
   5   26716.9    374.3   0.058496341   0.72081  -0.84843  -0.00127   0.03105

Dispersion correction           -0.157783998
FINAL SINGLE POINT ENERGY     -2387.507648905368
Dispersion correction                    ... done

DIPOLE MOMENT
-------------
                                X             Y             Z
Electronic contribution:      3.95260       1.34464      -0.07002
Nuclear contribution   :     -7.84422      -0.27680       0.24308
                        -----------------------------------------
Total Dipole Moment    :     -3.89163       1.06784       0.17306
                        -----------------------------------------
Magnitude (a.u.)       :      4.03918
Magnitude (Debye)      :     10.26678

Rotational constants in cm-1:     0.002528     0.000787     0.000748
Rotational constants in MHz :    75.800124    23.591976    22.409612

                             ****ORCA TERMINATED NORMALLY****
TOTAL RUN TIME: 0 days 2 hours 54 minutes 38 seconds 357 msec
